Generated by CHARMM-GUI FF-Converter
443
    1PETL   H11    1   1.146   4.968   4.008
    1PETL    O1    2   1.240   4.986   4.004
    1PETL    C1    3   1.327   4.866   4.012
    1PETL    O2    4   1.276   4.753   4.024
    1PETL    C2    5   1.486   4.894   4.006
    1PETL    C3    6   1.692   5.056   3.987
    1PETL   H31    7   1.733   5.160   3.977
    1PETL    C4    8   1.542   5.034   3.992
    1PETL   H41    9   1.473   5.122   3.986
    1PETL    C5   10   1.580   4.776   4.014
    1PETL   H51   11   1.540   4.673   4.025
    1PETL    C6   12   1.730   4.798   4.009
    1PETL   H61   13   1.799   4.710   4.016
    1PETL    C7   14   1.786   4.938   3.996
    1PETL    C8   15   1.946   4.957   3.991
    1PETL    O3   16   2.012   4.831   4.007
    1PETL    O4   17   2.006   5.065   3.976
    1PETL    C9   18   2.161   4.818   3.998
    1PETL   H91   19   2.199   4.863   3.899
    1PETL   H92   20   2.211   4.874   4.086
    1PETL   C10   21   2.206   4.656   4.004
    1PETL   HX1   22   2.152   4.598   3.920
    1PETL   HX2   23   2.177   4.612   4.107
    2PETL    O1   24   2.354   4.651   3.985
    2PETL    C1   25   2.433   4.536   4.011
    2PETL    O2   26   2.387   4.424   4.036
    2PETL    C2   27   2.590   4.575   4.006
    2PETL    C3   28   2.774   4.762   3.988
    2PETL   H31   29   2.801   4.870   3.978
    2PETL    C4   30   2.628   4.721   3.991
    2PETL   H41   31   2.549   4.800   3.984
    2PETL    C5   32   2.697   4.470   4.016
    2PETL   H51   33   2.670   4.362   4.026
    2PETL    C6   34   2.843   4.511   4.013
    2PETL   H61   35   2.923   4.433   4.020
    2PETL    C7   36   2.881   4.657   4.000
    2PETL    C8   37   3.037   4.698   4.000
    2PETL    O3   38   3.116   4.595   4.059
    2PETL    O4   39   3.084   4.802   3.952
    2PETL    C9   40   3.254   4.565   4.009
    2PETL   H91   41   3.270   4.614   3.905
    2PETL   H92   42   3.333   4.606   4.082
    2PETL   C10   43   3.275   4.400   3.992
    2PETL   HX1   44   3.195   4.358   3.920
    2PETL   HX2   45   3.261   4.350   4.096
    3PETL    O1   46   3.412   4.371   3.939
    3PETL    C1   47   3.496   4.274   4.003
    3PETL    O2   48   3.453   4.170   4.056
    3PETL    C2   49   3.650   4.323   4.003
    3PETL    C3   50   3.824   4.519   3.989
    3PETL   H31   51   3.847   4.628   3.979
    3PETL    C4   52   3.681   4.471   3.989
    3PETL   H41   53   3.597   4.545   3.980
    3PETL    C5   54   3.762   4.223   4.018
    3PETL   H51   55   3.740   4.114   4.027
    3PETL    C6   56   3.906   4.271   4.017
    3PETL   H61   57   3.989   4.197   4.026
    3PETL    C7   58   3.936   4.419   4.003
    3PETL    C8   59   4.091   4.467   4.003
    3PETL    O3   60   4.175   4.368   4.063
    3PETL    O4   61   4.134   4.571   3.952
    3PETL    C9   62   4.312   4.339   4.009
    3PETL   H91   63   4.324   4.389   3.906
    3PETL   H92   64   4.392   4.381   4.081
    3PETL   C10   65   4.333   4.174   3.992
    3PETL   HX1   66   4.253   4.133   3.920
    3PETL   HX2   67   4.321   4.124   4.095
    4PETL    O1   68   4.470   4.147   3.937
    4PETL    C1   69   4.557   4.053   4.002
    4PETL    O2   70   4.517   3.948   4.056
    4PETL    C2   71   4.709   4.106   4.002
    4PETL    C3   72   4.878   4.307   3.989
    4PETL   H31   73   4.897   4.416   3.979
    4PETL    C4   74   4.736   4.255   3.988
    4PETL   H41   75   4.651   4.326   3.980
    4PETL    C5   76   4.824   4.010   4.017
    4PETL   H51   77   4.805   3.900   4.027
    4PETL    C6   78   4.966   4.062   4.017
    4PETL   H61   79   5.052   3.990   4.026
    4PETL    C7   80   4.993   4.210   4.003
    4PETL    C8   81   5.146   4.262   4.003
    4PETL    O3   82   5.233   4.166   4.063
    4PETL    O4   83   5.186   4.368   3.952
    4PETL    C9   84   5.370   4.141   4.009
    4PETL   H91   85   5.382   4.192   3.906
    4PETL   H92   86   5.449   4.185   4.081
    4PETL   C10   87   5.397   3.977   3.991
    4PETL   HX1   88   5.318   3.933   3.919
    4PETL   HX2   89   5.386   3.927   4.094
    5PETL    O1   90   5.534   3.953   3.936
    5PETL    C1   91   5.624   3.862   4.001
    5PETL    O2   92   5.587   3.756   4.055
    5PETL    C2   93   5.775   3.919   4.001
    5PETL    C3   94   5.938   4.125   3.988
    5PETL   H31   95   5.954   4.235   3.979
    5PETL    C4   96   5.797   4.069   3.988
    5PETL   H41   97   5.710   4.138   3.979
    5PETL    C5   98   5.892   3.826   4.016
    5PETL   H51   99   5.876   3.716   4.026
    5PETL    C6  100   6.033   3.882   4.016
    5PETL   H61  101   6.120   3.813   4.025
    5PETL    C7  102   6.055   4.031   4.003
    5PETL    C8  103   6.207   4.088   4.002
    5PETL    O3  104   6.296   3.993   4.063
    5PETL    O4  105   6.244   4.195   3.952
    5PETL    C9  106   6.435   3.973   4.008
    5PETL   H91  107   6.445   4.024   3.905
    5PETL   H92  108   6.512   4.019   4.081
    5PETL   C10  109   6.465   3.809   3.990
    5PETL   HX1  110   6.388   3.763   3.918
    5PETL   HX2  111   6.456   3.758   4.094
    6PETL    O1  112   6.604   3.790   3.936
    6PETL    C1  113   6.696   3.701   4.000
    6PETL    O2  114   6.661   3.594   4.053
    6PETL    C2  115   6.845   3.762   4.001
    6PETL    C3  116   7.002   3.972   3.988
    6PETL   H31  117   7.015   4.082   3.979
    6PETL    C4  118   6.863   3.912   3.988
    6PETL   H41  119   6.774   3.979   3.979
    6PETL    C5  120   6.965   3.672   4.015
    6PETL   H51  121   6.952   3.561   4.024
    6PETL    C6  122   7.104   3.732   4.015
    6PETL   H61  123   7.193   3.665   4.024
    6PETL    C7  124   7.122   3.881   4.002
    6PETL    C8  125   7.272   3.942   4.002
    6PETL    O3  126   7.364   3.850   4.062
    6PETL    O4  127   7.306   4.050   3.952
    6PETL    C9  128   7.503   3.834   4.008
    6PETL   H91  129   7.511   3.885   3.905
    6PETL   H92  130   7.579   3.881   4.080
    6PETL   C10  131   7.538   3.671   3.989
    6PETL   HX1  132   7.462   3.623   3.917
    6PETL   HX2  133   7.530   3.620   4.092
    7PETL    O1  134   7.677   3.655   3.935
    7PETL    C1  135   7.771   3.569   3.999
    7PETL    O2  136   7.740   3.461   4.052
    7PETL    C2  137   7.919   3.634   4.000
    7PETL    C3  138   8.070   3.848   3.987
    7PETL   H31  139   8.081   3.959   3.979
    7PETL    C4  140   7.933   3.785   3.987
    7PETL   H41  141   7.842   3.849   3.978
    7PETL    C5  142   8.041   3.548   4.014
    7PETL   H51  143   8.031   3.437   4.023
    7PETL    C6  144   8.179   3.611   4.015
    7PETL   H61  145   8.270   3.547   4.023
    7PETL    C7  146   8.193   3.761   4.002
    7PETL    C8  147   8.341   3.826   4.001
    7PETL    O3  148   8.436   3.737   4.061
    7PETL    O4  149   8.372   3.935   3.952
    7PETL    C9  150   8.575   3.724   4.007
    7PETL   H91  151   8.582   3.776   3.904
    7PETL   H92  152   8.650   3.774   4.080
    7PETL   C10  153   8.614   3.563   3.988
    7PETL   HX1  154   8.540   3.513   3.916
    7PETL   HX2  155   8.608   3.511   4.091
    8PETL    O1  156   8.754   3.551   3.934
    8PETL    C1  157   8.850   3.467   3.998
    8PETL    O2  158   8.822   3.358   4.051
    8PETL    C2  159   8.996   3.536   3.999
    8PETL    C3  160   9.141   3.754   3.987
    8PETL   H31  161   9.149   3.865   3.978
    8PETL    C4  162   9.006   3.687   3.986
    8PETL   H41  163   8.913   3.749   3.978
    8PETL    C5  164   9.121   3.453   4.013
    8PETL   H51  165   9.114   3.342   4.022
    8PETL    C6  166   9.256   3.520   4.014
    8PETL   H61  167   9.349   3.458   4.022
    8PETL    C7  168   9.266   3.671   4.001
    8PETL    C8  169   9.412   3.740   4.001
    8PETL    O3  170   9.510   3.653   4.061
    8PETL    O4  171   9.441   3.850   3.951
    8PETL    C9  172   9.649   3.644   4.006
    8PETL   H91  173   9.655   3.697   3.903
    8PETL   H92  174   9.723   3.696   4.079
    8PETL   C10  175   9.693   3.484   3.987
    8PETL   HX1  176   9.620   3.432   3.915
    8PETL   HX2  177   9.688   3.432   4.090
    9PETL    O1  178   9.833   3.476   3.933
    9PETL    C1  179   9.932   3.394   3.997
    9PETL    O2  180   9.907   3.285   4.049
    9PETL    C2  181  10.075   3.468   3.998
    9PETL    C3  182  10.215   3.690   3.986
    9PETL   H31  183  10.219   3.801   3.978
    9PETL    C4  184  10.081   3.619   3.985
    9PETL   H41  185   9.987   3.678   3.977
    9PETL    C5  186  10.203   3.388   4.012
    9PETL   H51  187  10.199   3.277   4.020
    9PETL    C6  188  10.336   3.459   4.013
    9PETL   H61  189  10.430   3.400   4.021
    9PETL    C7  190  10.342   3.610   4.000
    9PETL    C8  191  10.486   3.683   4.000
    9PETL    O3  192  10.586   3.599   4.060
    9PETL    O4  193  10.511   3.794   3.951
    9PETL    C9  194  10.725   3.594   4.006
    9PETL   H91  195  10.730   3.647   3.903
    9PETL   H92  196  10.797   3.647   4.078
    9PETL   C10  197  10.774   3.435   3.986
    9PETL   HX1  198  10.702   3.381   3.914
    9PETL   HX2  199  10.770   3.382   4.089
   10PETL    O1  200  10.914   3.431   3.932
   10PETL    C1  201  11.015   3.352   3.996
   10PETL    O2  202  10.993   3.242   4.048
   10PETL    C2  203  11.156   3.430   3.997
   10PETL    C3  204  11.290   3.656   3.986
   10PETL   H31  205  11.291   3.767   3.978
   10PETL    C4  206  11.158   3.581   3.985
   10PETL   H41  207  11.062   3.637   3.977
   10PETL    C5  208  11.286   3.353   4.011
   10PETL   H51  209  11.285   3.242   4.019
   10PETL    C6  210  11.417   3.428   4.012
   10PETL   H61  211  11.513   3.371   4.020
   10PETL    C7  212  11.419   3.579   4.000
   10PETL    C8  213  11.561   3.656   4.000
   10PETL    O3  214  11.663   3.574   4.060
   10PETL    O4  215  11.583   3.767   3.951
   10PETL    C9  216  11.803   3.573   4.005
   10PETL   H91  217  11.805   3.627   3.903
   10PETL   H92  218  11.873   3.629   4.078
   10PETL   C10  219  11.856   3.416   3.986
   10PETL   HX1  220  11.785   3.361   3.913
   10PETL   HX2  221  11.853   3.363   4.088
   11PETL    O1  222  11.995   3.416   3.931
   11PETL    C1  223  12.099   3.340   3.995
   11PETL    O2  224  12.080   3.229   4.047
   11PETL    C2  225  12.238   3.421   3.996
   11PETL    C3  226  12.365   3.651   3.986
   11PETL   H31  227  12.363   3.762   3.978
   11PETL    C4  228  12.235   3.572   3.984
   11PETL   H41  229  12.138   3.626   3.976
   11PETL    C5  230  12.369   3.348   4.010
   11PETL   H51  231  12.371   3.237   4.018
   11PETL    C6  232  12.499   3.427   4.011
   11PETL   H61  233  12.596   3.373   4.019
   11PETL    C7  234  12.496   3.578   3.999
   11PETL    C8  235  12.636   3.658   4.000
   11PETL    O3  236  12.740   3.580   4.059
   11PETL    O4  237  12.655   3.771   3.951
   11PETL    C9  238  12.880   3.583   4.005
   11PETL   H91  239  12.881   3.636   3.902
   11PETL   H92  240  12.949   3.640   4.078
   11PETL   C10  241  12.937   3.427   3.985
   11PETL   HX1  242  12.868   3.370   3.912
   11PETL   HX2  243  12.936   3.374   4.088
   12PETL    O1  244  13.077   3.431   3.930
   12PETL    C1  245  13.182   3.357   3.994
   12PETL    O2  246  13.166   3.246   4.046
   12PETL    C2  247  13.319   3.443   3.995
   12PETL    C3  248  13.440   3.676   3.985
   12PETL   H31  249  13.435   3.787   3.978
   12PETL    C4  250  13.313   3.594   3.984
   12PETL   H41  251  13.214   3.645   3.976
   12PETL    C5  252  13.453   3.374   4.009
   12PETL   H51  253  13.458   3.262   4.017
   12PETL    C6  254  13.580   3.455   4.010
   12PETL   H61  255  13.679   3.404   4.018
   12PETL    C7  256  13.573   3.606   3.999
   12PETL    C8  257  13.711   3.691   4.000
   12PETL    O3  258  13.817   3.615   4.059
   12PETL    O4  259  13.727   3.804   3.951
   12PETL    C9  260  13.957   3.622   4.005
   12PETL   H91  261  13.957   3.675   3.902
   12PETL   H92  262  14.024   3.681   4.078
   12PETL   C10  263  14.018   3.468   3.984
   12PETL   HX1  264  13.951   3.409   3.912
   12PETL   HX2  265  14.019   3.414   4.087
   13PETL    O1  266  14.158   3.476   3.930
   13PETL    C1  267  14.265   3.405   3.994
   13PETL    O2  268  14.252   3.293   4.045
   13PETL    C2  269  14.400   3.494   3.995
   13PETL    C3  270  14.514   3.730   3.986
   13PETL   H31  271  14.506   3.841   3.978
   13PETL    C4  272  14.389   3.645   3.984
   13PETL   H41  273  14.289   3.693   3.976
   13PETL    C5  274  14.535   3.429   4.009
   13PETL   H51  275  14.543   3.317   4.016
   13PETL    C6  276  14.660   3.514   4.010
   13PETL   H61  277  14.760   3.465   4.018
   13PETL    C7  278  14.649   3.665   3.999
   13PETL    C8  279  14.784   3.753   4.000
   13PETL    O3  280  14.893   3.680   4.059
   13PETL    O4  281  14.797   3.866   3.952
   13PETL    C9  282  15.032   3.691   4.005
   13PETL   H91  283  15.030   3.744   3.902
   13PETL   H92  284  15.098   3.751   4.078
   13PETL   C10  285  15.098   3.538   3.984
   13PETL   HX1  286  15.032   3.478   3.911
   13PETL   HX2  287  15.100   3.485   4.087
   14PETL    O1  288  15.237   3.550   3.930
   14PETL    C1  289  15.346   3.482   3.993
   14PETL    O2  290  15.336   3.370   4.045
   14PETL    C2  291  15.478   3.575   3.995
   14PETL    C3  292  15.586   3.814   3.986
   14PETL   H31  293  15.575   3.925   3.979
   14PETL    C4  294  15.463   3.726   3.984
   14PETL   H41  295  15.362   3.771   3.976
   14PETL    C5  296  15.615   3.513   4.009
   14PETL   H51  297  15.627   3.403   4.016
   14PETL    C6  298  15.738   3.602   4.010
   14PETL   H61  299  15.839   3.556   4.018
   14PETL    C7  300  15.723   3.753   3.999
   14PETL    C8  301  15.856   3.844   4.000
   14PETL    O3  302  15.966   3.774   4.059
   14PETL    O4  303  15.865   3.958   3.952
   14PETL    C9  304  16.105   3.789   4.005
   14PETL   H91  305  16.102   3.843   3.903
   14PETL   H92  306  16.169   3.851   4.079
   14PETL   C10  307  16.175   3.639   3.985
   14PETL   HX1  308  16.111   3.576   3.911
   14PETL   HX2  309  16.178   3.585   4.087
   15PETL    O1  310  16.314   3.655   3.930
   15PETL    C1  311  16.425   3.590   3.994
   15PETL    O2  312  16.418   3.477   4.045
   15PETL    C2  313  16.554   3.686   3.995
   15PETL    C3  314  16.655   3.928   3.987
   15PETL   H31  315  16.641   4.039   3.980
   15PETL    C4  316  16.535   3.836   3.985
   15PETL   H41  317  16.432   3.879   3.977
   15PETL    C5  318  16.693   3.628   4.009
   15PETL   H51  319  16.707   3.518   4.016
   15PETL    C6  320  16.813   3.720   4.011
   15PETL   H61  321  16.916   3.677   4.018
   15PETL    C7  322  16.794   3.870   4.000
   15PETL    C8  323  16.924   3.966   4.001
   15PETL    O3  324  17.036   3.898   4.060
   15PETL    O4  325  16.930   4.080   3.954
   15PETL    C9  326  17.175   3.917   4.006
   15PETL   H91  327  17.170   3.971   3.904
   15PETL   H92  328  17.237   3.981   4.080
   15PETL   C10  329  17.249   3.769   3.985
   15PETL   HX1  330  17.187   3.705   3.912
   15PETL   HX2  331  17.254   3.715   4.087
   16PETL    O1  332  17.387   3.789   3.931
   16PETL    C1  333  17.500   3.727   3.994
   16PETL    O2  334  17.496   3.614   4.045
   16PETL    C2  335  17.627   3.827   3.996
   16PETL    C3  336  17.721   4.072   3.988
   16PETL   H31  337  17.703   4.182   3.981
   16PETL    C4  338  17.603   3.976   3.986
   16PETL   H41  339  17.499   4.016   3.978
   16PETL    C5  340  17.767   3.773   4.010
   16PETL   H51  341  17.784   3.662   4.017
   16PETL    C6  342  17.884   3.868   4.012
   16PETL   H61  343  17.988   3.828   4.019
   16PETL    C7  344  17.861   4.017   4.001
   16PETL    C8  345  17.988   4.116   4.003
   16PETL    O3  346  18.102   4.052   4.062
   16PETL    O4  347  17.992   4.231   3.955
   16PETL    C9  348  18.240   4.075   4.007
   16PETL   H91  349  18.234   4.129   3.905
   16PETL   H92  350  18.301   4.140   4.081
   16PETL   C10  351  18.319   3.929   3.986
   16PETL   HX1  352  18.258   3.863   3.913
   16PETL   HX2  353  18.325   3.875   4.088
   17PETL    O1  354  18.456   3.952   3.932
   17PETL    C1  355  18.571   3.894   3.995
   17PETL    O2  356  18.570   3.780   4.046
   17PETL    C2  357  18.695   3.997   3.997
   17PETL    C3  358  18.782   4.244   3.990
   17PETL   H31  359  18.762   4.354   3.983
   17PETL    C4  360  18.667   4.146   3.987
   17PETL   H41  361  18.562   4.183   3.980
   17PETL    C5  362  18.836   3.947   4.011
   17PETL   H51  363  18.857   3.837   4.018
   17PETL    C6  364  18.951   4.045   4.013
   17PETL   H61  365  19.056   4.008   4.020
   17PETL    C7  366  18.924   4.194   4.003
   17PETL    C8  367  19.048   4.297   4.005
   17PETL    O3  368  19.164   4.235   4.064
   17PETL    O4  369  19.048   4.411   3.957
   17PETL    C9  370  19.301   4.262   4.009
   17PETL   H91  371  19.294   4.316   3.907
   17PETL   H92  372  19.360   4.329   4.083
   17PETL   C10  373  19.383   4.118   3.988
   17PETL   HX1  374  19.325   4.051   3.914
   17PETL   HX2  375  19.391   4.064   4.090
   18PETL    O1  376  19.520   4.145   3.933
   18PETL    C1  377  19.636   4.090   3.997
   18PETL    O2  378  19.639   3.976   4.047
   18PETL    C2  379  19.757   4.196   3.999
   18PETL    C3  380  19.837   4.446   3.992
   18PETL   H31  381  19.814   4.555   3.986
   18PETL    C4  382  19.726   4.344   3.990
   18PETL   H41  383  19.620   4.378   3.982
   18PETL    C5  384  19.900   4.150   4.012
   18PETL   H51  385  19.924   4.041   4.019
   18PETL    C6  386  20.012   4.252   4.014
   18PETL   H61  387  20.118   4.218   4.022
   18PETL    C7  388  19.981   4.400   4.005
   18PETL    C8  389  20.102   4.506   4.007
   18PETL    O3  390  20.219   4.448   4.066
   18PETL    O4  391  20.099   4.621   3.960
   18PETL    C9  392  20.356   4.479   4.012
   18PETL   H91  393  20.347   4.533   3.910
   18PETL   H92  394  20.412   4.547   4.085
   18PETL   C10  395  20.441   4.337   3.990
   18PETL   HX1  396  20.385   4.268   3.916
   18PETL   HX2  397  20.450   4.283   4.092
   19PETL    O1  398  20.578   4.368   3.936
   19PETL    C1  399  20.695   4.315   4.000
   19PETL    O2  400  20.700   4.201   4.049
   19PETL    C2  401  20.812   4.425   4.005
   19PETL    C3  402  20.888   4.676   3.997
   19PETL   H31  403  20.862   4.785   3.990
   19PETL    C4  404  20.777   4.572   3.996
   19PETL   H41  405  20.671   4.604   3.990
   19PETL    C5  406  20.956   4.381   4.016
   19PETL   H51  407  20.981   4.272   4.022
   19PETL    C6  408  21.066   4.485   4.015
   19PETL   H61  409  21.172   4.452   4.021
   19PETL    C7  410  21.031   4.632   4.005
   19PETL    C8  411  21.154   4.738   4.002
   19PETL    O3  412  21.277   4.668   4.017
   19PETL    O4  413  21.145   4.860   3.987
   19PETL    C9  414  21.412   4.727   4.003
   19PETL   H91  415  21.420   4.785   3.904
   19PETL   H92  416  21.433   4.798   4.091
   19PETL   C10  417  21.524   4.603   4.004
   19PETL   HX1  418  21.503   4.531   3.917
   19PETL   HX2  419  21.517   4.545   4.104
   20PETL    O1  420  21.660   4.662   3.989
   20PETL    C1  421  21.781   4.591   4.012
   20PETL    O2  422  21.787   4.469   4.030
   20PETL    C2  423  21.906   4.694   4.011
   20PETL    C3  424  21.988   4.943   4.000
   20PETL   H31  425  21.965   5.052   3.994
   20PETL    C4  426  21.876   4.842   4.003
   20PETL   H41  427  21.770   4.878   3.999
   20PETL    C5  428  22.048   4.646   4.017
   20PETL   H51  429  22.071   4.537   4.023
   20PETL    C6  430  22.162   4.747   4.014
   20PETL   H61  431  22.267   4.711   4.018
   20PETL    C7  432  22.131   4.895   4.006
   20PETL    C8  433  22.252   5.002   4.002
   20PETL    O3  434  22.379   4.938   4.007
   20PETL    O4  435  22.238   5.126   3.995
   20PETL    C9  436  22.508   5.015   4.005
   20PETL   H91  437  22.515   5.076   3.907
   20PETL   H92  438  22.512   5.086   4.095
   20PETL   C10  439  22.638   4.908   4.013
   20PETL   HX1  440  22.626   4.835   3.922
   20PETL   HX2  441  22.623   4.845   4.110
   20PETL   HZ1  442  22.836   4.904   4.016
   20PETL    OZ  443  22.772   4.975   4.011
  24.00000   8.00000   8.00000   0.00000   0.00000   0.00000   0.00000   0.00000   0.00000
