frame t= 25220.000
  443
    1PETL   H11    1  -0.594  -0.357   0.624
    1PETL    O1    2  -0.650  -0.288   0.589
    1PETL    C1    3  -0.634  -0.182   0.682
    1PETL    O2    4  -0.568  -0.206   0.785
    1PETL    C2    5  -0.689  -0.046   0.643
    1PETL    C3    6  -0.789   0.121   0.497
    1PETL   H31    7  -0.831   0.152   0.403
    1PETL    C4    8  -0.747  -0.015   0.518
    1PETL   H41    9  -0.755  -0.080   0.432
    1PETL    C5   10  -0.677   0.050   0.749
    1PETL   H51   11  -0.642   0.033   0.850
    1PETL    C6   12  -0.712   0.183   0.720
    1PETL   H61   13  -0.705   0.261   0.794
    1PETL    C7   14  -0.770   0.221   0.598
    1PETL    C8   15  -0.815   0.365   0.579
    1PETL    O3   16  -0.877   0.397   0.461
    1PETL    O4   17  -0.797   0.448   0.669
    1PETL    C9   18  -0.885   0.539   0.444
    1PETL   H91   19  -0.969   0.577   0.506
    1PETL   H92   20  -0.793   0.592   0.475
    1PETL   C10   21  -0.912   0.562   0.305
    1PETL   HX1   22  -0.831   0.552   0.229
    1PETL   HX2   23  -0.986   0.642   0.280
    2PETL    O1   24  -0.968   0.435   0.334
    2PETL    C1   25  -1.048   0.398   0.229
    2PETL    O2   26  -1.048   0.460   0.123
    2PETL    C2   27  -1.117   0.274   0.257
    2PETL    C3   28  -1.171   0.084   0.407
    2PETL   H31   29  -1.184   0.040   0.505
    2PETL    C4   30  -1.120   0.214   0.391
    2PETL   H41   31  -1.077   0.261   0.479
    2PETL    C5   32  -1.169   0.198   0.155
    2PETL   H51   33  -1.194   0.239   0.058
    2PETL    C6   34  -1.231   0.075   0.172
    2PETL   H61   35  -1.283   0.024   0.092
    2PETL    C7   36  -1.227   0.013   0.297
    2PETL    C8   37  -1.271  -0.128   0.325
    2PETL    O3   38  -1.299  -0.193   0.214
    2PETL    O4   39  -1.269  -0.179   0.438
    2PETL    C9   40  -1.347  -0.328   0.245
    2PETL   H91   41  -1.275  -0.373   0.317
    2PETL   H92   42  -1.452  -0.325   0.282
    2PETL   C10   43  -1.339  -0.406   0.124
    2PETL   HX1   44  -1.416  -0.486   0.109
    2PETL   HX2   45  -1.236  -0.428   0.090
    3PETL    O1   46  -1.392  -0.268   0.105
    3PETL    C1   47  -1.410  -0.249  -0.026
    3PETL    O2   48  -1.375  -0.322  -0.116
    3PETL    C2   49  -1.481  -0.121  -0.054
    3PETL    C3   50  -1.614   0.074  -0.010
    3PETL   H31   51  -1.661   0.142   0.059
    3PETL    C4   52  -1.540  -0.039   0.042
    3PETL   H41   53  -1.544  -0.059   0.148
    3PETL    C5   54  -1.490  -0.095  -0.196
    3PETL   H51   55  -1.433  -0.157  -0.262
    3PETL    C6   56  -1.572  -0.000  -0.242
    3PETL   H61   57  -1.592   0.015  -0.347
    3PETL    C7   58  -1.638   0.092  -0.148
    3PETL    C8   59  -1.721   0.211  -0.192
    3PETL    O3   60  -1.755   0.206  -0.324
    3PETL    O4   61  -1.744   0.308  -0.122
    3PETL    C9   62  -1.830   0.314  -0.373
    3PETL   H91   63  -1.922   0.318  -0.312
    3PETL   H92   64  -1.769   0.407  -0.371
    3PETL   C10   65  -1.873   0.285  -0.516
    3PETL   HX1   66  -1.795   0.287  -0.597
    3PETL   HX2   67  -1.975   0.308  -0.553
    4PETL    O1   68  -1.867   0.160  -0.438
    4PETL    C1   69  -1.901   0.061  -0.528
    4PETL    O2   70  -1.929   0.085  -0.643
    4PETL    C2   71  -1.869  -0.077  -0.482
    4PETL    C3   72  -1.835  -0.229  -0.300
    4PETL   H31   73  -1.841  -0.253  -0.195
    4PETL    C4   74  -1.868  -0.105  -0.342
    4PETL   H41   75  -1.897  -0.028  -0.271
    4PETL    C5   76  -1.827  -0.169  -0.574
    4PETL   H51   77  -1.824  -0.139  -0.678
    4PETL    C6   78  -1.783  -0.289  -0.530
    4PETL   H61   79  -1.765  -0.366  -0.604
    4PETL    C7   80  -1.786  -0.326  -0.390
    4PETL    C8   81  -1.754  -0.467  -0.344
    4PETL    O3   82  -1.683  -0.553  -0.418
    4PETL    O4   83  -1.789  -0.493  -0.229
    4PETL    C9   84  -1.663  -0.675  -0.341
    4PETL   H91   85  -1.607  -0.662  -0.246
    4PETL   H92   86  -1.763  -0.717  -0.318
    4PETL   C10   87  -1.575  -0.763  -0.424
    4PETL   HX1   88  -1.629  -0.823  -0.499
    4PETL   HX2   89  -1.504  -0.823  -0.362
    5PETL    O1   90  -1.548  -0.619  -0.456
    5PETL    C1   91  -1.425  -0.621  -0.514
    5PETL    O2   92  -1.367  -0.725  -0.535
    5PETL    C2   93  -1.389  -0.488  -0.576
    5PETL    C3   94  -1.308  -0.344  -0.756
    5PETL   H31   95  -1.255  -0.333  -0.849
    5PETL    C4   96  -1.329  -0.472  -0.702
    5PETL   H41   97  -1.321  -0.557  -0.769
    5PETL    C5   98  -1.411  -0.370  -0.502
    5PETL   H51   99  -1.460  -0.380  -0.406
    5PETL    C6  100  -1.386  -0.246  -0.551
    5PETL   H61  101  -1.422  -0.154  -0.505
    5PETL    C7  102  -1.330  -0.225  -0.682
    5PETL    C8  103  -1.279  -0.101  -0.746
    5PETL    O3  104  -1.270  -0.004  -0.662
    5PETL    O4  105  -1.245  -0.087  -0.866
    5PETL    C9  106  -1.238   0.120  -0.728
    5PETL   H91  107  -1.143   0.111  -0.786
    5PETL   H92  108  -1.314   0.151  -0.801
    5PETL   C10  109  -1.226   0.218  -0.617
    5PETL   HX1  110  -1.316   0.266  -0.572
    5PETL   HX2  111  -1.144   0.286  -0.648
    6PETL    O1  112  -1.176   0.097  -0.557
    6PETL    C1  113  -1.184   0.101  -0.418
    6PETL    O2  114  -1.230   0.197  -0.358
    6PETL    C2  115  -1.130  -0.018  -0.342
    6PETL    C3  116  -1.047  -0.242  -0.358
    6PETL   H31  117  -1.025  -0.324  -0.424
    6PETL    C4  118  -1.086  -0.123  -0.417
    6PETL   H41  119  -1.073  -0.114  -0.523
    6PETL    C5  120  -1.136  -0.025  -0.202
    6PETL   H51  121  -1.181   0.060  -0.153
    6PETL    C6  122  -1.087  -0.138  -0.135
    6PETL   H61  123  -1.103  -0.142  -0.028
    6PETL    C7  124  -1.049  -0.251  -0.217
    6PETL    C8  125  -1.002  -0.368  -0.141
    6PETL    O3  126  -1.020  -0.366  -0.006
    6PETL    O4  127  -0.957  -0.468  -0.197
    6PETL    C9  128  -0.955  -0.482   0.056
    6PETL   H91  129  -1.010  -0.575   0.028
    6PETL   H92  130  -0.848  -0.492   0.026
    6PETL   C10  131  -0.957  -0.457   0.199
    6PETL   HX1  132  -0.882  -0.518   0.255
    6PETL   HX2  133  -1.060  -0.442   0.238
    7PETL    O1  134  -0.896  -0.358   0.113
    7PETL    C1  135  -0.887  -0.240   0.179
    7PETL    O2  136  -0.947  -0.219   0.290
    7PETL    C2  137  -0.822  -0.127   0.101
    7PETL    C3  138  -0.786   0.113   0.092
    7PETL   H31  139  -0.791   0.209   0.139
    7PETL    C4  140  -0.829   0.003   0.161
    7PETL   H41  141  -0.883   0.014   0.253
    7PETL    C5  142  -0.772  -0.137  -0.031
    7PETL   H51  143  -0.758  -0.231  -0.082
    7PETL    C6  144  -0.727  -0.021  -0.099
    7PETL   H61  145  -0.677  -0.033  -0.193
    7PETL    C7  146  -0.735   0.110  -0.042
    7PETL    C8  147  -0.678   0.229  -0.122
    7PETL    O3  148  -0.675   0.337  -0.052
    7PETL    O4  149  -0.633   0.222  -0.237
    7PETL    C9  150  -0.627   0.454  -0.119
    7PETL   H91  151  -0.524   0.436  -0.156
    7PETL   H92  152  -0.682   0.473  -0.213
    7PETL   C10  153  -0.624   0.566  -0.026
    7PETL   HX1  154  -0.719   0.618   0.004
    7PETL   HX2  155  -0.531   0.627  -0.035
    8PETL    O1  156  -0.616   0.446   0.057
    8PETL    C1  157  -0.561   0.473   0.185
    8PETL    O2  158  -0.565   0.589   0.230
    8PETL    C2  159  -0.495   0.356   0.258
    8PETL    C3  160  -0.442   0.263   0.474
    8PETL   H31  161  -0.446   0.267   0.583
    8PETL    C4  162  -0.475   0.373   0.397
    8PETL   H41  163  -0.500   0.459   0.456
    8PETL    C5  164  -0.463   0.236   0.199
    8PETL   H51  165  -0.469   0.226   0.091
    8PETL    C6  166  -0.405   0.131   0.272
    8PETL   H61  167  -0.374   0.039   0.227
    8PETL    C7  168  -0.407   0.140   0.414
    8PETL    C8  169  -0.361   0.025   0.504
    8PETL    O3  170  -0.331  -0.084   0.435
    8PETL    O4  171  -0.361   0.027   0.625
    8PETL    C9  172  -0.286  -0.196   0.522
    8PETL   H91  173  -0.215  -0.162   0.601
    8PETL   H92  174  -0.376  -0.244   0.568
    8PETL   C10  175  -0.226  -0.301   0.430
    8PETL   HX1  176  -0.309  -0.345   0.372
    8PETL   HX2  177  -0.150  -0.368   0.476
    9PETL    O1  178  -0.193  -0.169   0.382
    9PETL    C1  179  -0.130  -0.167   0.265
    9PETL    O2  180  -0.120  -0.269   0.198
    9PETL    C2  181  -0.082  -0.032   0.223
    9PETL    C3  182   0.008   0.098   0.044
    9PETL   H31  183   0.052   0.106  -0.054
    9PETL    C4  184  -0.042  -0.019   0.090
    9PETL   H41  185  -0.054  -0.097   0.017
    9PETL    C5  186  -0.071   0.080   0.311
    9PETL   H51  187  -0.091   0.076   0.417
    9PETL    C6  188  -0.038   0.208   0.259
    9PETL   H61  189  -0.035   0.288   0.331
    9PETL    C7  190   0.004   0.215   0.123
    9PETL    C8  191   0.061   0.346   0.078
    9PETL    O3  192   0.087   0.343  -0.051
    9PETL    O4  193   0.068   0.446   0.150
    9PETL    C9  194   0.113   0.473  -0.108
    9PETL   H91  195   0.034   0.541  -0.070
    9PETL   H92  196   0.212   0.516  -0.078
    9PETL   C10  197   0.096   0.456  -0.255
    9PETL   HX1  198   0.160   0.516  -0.324
    9PETL   HX2  199  -0.003   0.419  -0.289
   10PETL    O1  200   0.176   0.353  -0.186
   10PETL    C1  201   0.249   0.284  -0.278
   10PETL    O2  202   0.239   0.295  -0.400
   10PETL    C2  203   0.337   0.185  -0.207
   10PETL    C3  204   0.454   0.103  -0.012
   10PETL   H31  205   0.487   0.116   0.090
   10PETL    C4  206   0.399   0.209  -0.085
   10PETL   H41  207   0.384   0.308  -0.042
   10PETL    C5  208   0.351   0.053  -0.260
   10PETL   H51  209   0.299   0.037  -0.353
   10PETL    C6  210   0.419  -0.050  -0.195
   10PETL   H61  211   0.423  -0.143  -0.250
   10PETL    C7  212   0.467  -0.024  -0.066
   10PETL    C8  213   0.519  -0.138   0.013
   10PETL    O3  214   0.574  -0.105   0.129
   10PETL    O4  215   0.512  -0.257  -0.024
   10PETL    C9  216   0.615  -0.216   0.199
   10PETL   H91  217   0.540  -0.298   0.197
   10PETL   H92  218   0.714  -0.247   0.161
   10PETL   C10  219   0.626  -0.172   0.350
   10PETL   HX1  220   0.716  -0.214   0.400
   10PETL   HX2  221   0.530  -0.171   0.405
   11PETL    O1  222   0.639  -0.053   0.266
   11PETL    C1  223   0.674   0.048   0.349
   11PETL    O2  224   0.673   0.046   0.469
   11PETL    C2  225   0.706   0.172   0.279
   11PETL    C3  226   0.740   0.417   0.292
   11PETL   H31  227   0.739   0.501   0.360
   11PETL    C4  228   0.708   0.293   0.354
   11PETL   H41  229   0.682   0.285   0.458
   11PETL    C5  230   0.743   0.180   0.146
   11PETL   H51  231   0.743   0.086   0.094
   11PETL    C6  232   0.777   0.302   0.087
   11PETL   H61  233   0.806   0.305  -0.018
   11PETL    C7  234   0.784   0.423   0.162
   11PETL    C8  235   0.839   0.558   0.108
   11PETL    O3  236   0.873   0.545  -0.020
   11PETL    O4  237   0.861   0.655   0.179
   11PETL    C9  238   0.933   0.667  -0.064
   11PETL   H91  239   0.907   0.758  -0.007
   11PETL   H92  240   1.044   0.662  -0.061
   11PETL   C10  241   0.891   0.684  -0.206
   11PETL   HX1  242   0.950   0.752  -0.271
   11PETL   HX2  243   0.782   0.683  -0.226
   12PETL    O1  244   0.942   0.551  -0.156
   12PETL    C1  245   0.967   0.484  -0.273
   12PETL    O2  246   0.931   0.530  -0.381
   12PETL    C2  247   1.033   0.357  -0.257
   12PETL    C3  248   1.121   0.156  -0.351
   12PETL   H31  249   1.138   0.089  -0.434
   12PETL    C4  250   1.052   0.276  -0.374
   12PETL   H41  251   1.013   0.303  -0.471
   12PETL    C5  252   1.062   0.305  -0.124
   12PETL   H51  253   1.048   0.352  -0.028
   12PETL    C6  254   1.131   0.183  -0.110
   12PETL   H61  255   1.152   0.150  -0.009
   12PETL    C7  256   1.169   0.113  -0.226
   12PETL    C8  257   1.258  -0.008  -0.226
   12PETL    O3  258   1.274  -0.055  -0.096
   12PETL    O4  259   1.311  -0.062  -0.320
   12PETL    C9  260   1.344  -0.177  -0.103
   12PETL   H91  261   1.298  -0.241  -0.180
   12PETL   H92  262   1.448  -0.162  -0.139
   12PETL   C10  263   1.348  -0.247   0.035
   12PETL   HX1  264   1.449  -0.287   0.056
   12PETL   HX2  265   1.253  -0.304   0.047
   13PETL    O1  266   1.336  -0.102   0.032
   13PETL    C1  267   1.366  -0.053   0.151
   13PETL    O2  268   1.359  -0.117   0.257
   13PETL    C2  269   1.406   0.095   0.149
   13PETL    C3  270   1.468   0.301   0.042
   13PETL   H31  271   1.495   0.362  -0.044
   13PETL    C4  272   1.432   0.167   0.034
   13PETL   H41  273   1.427   0.121  -0.063
   13PETL    C5  274   1.427   0.156   0.274
   13PETL   H51  275   1.428   0.103   0.369
   13PETL    C6  276   1.455   0.292   0.282
   13PETL   H61  277   1.462   0.348   0.374
   13PETL    C7  278   1.480   0.366   0.163
   13PETL    C8  279   1.551   0.500   0.165
   13PETL    O3  280   1.588   0.538   0.290
   13PETL    O4  281   1.574   0.567   0.064
   13PETL    C9  282   1.662   0.661   0.291
   13PETL   H91  283   1.740   0.661   0.212
   13PETL   H92  284   1.590   0.744   0.279
   13PETL   C10  285   1.706   0.678   0.438
   13PETL   HX1  286   1.634   0.730   0.503
   13PETL   HX2  287   1.811   0.714   0.453
   14PETL    O1  288   1.691   0.537   0.409
   14PETL    C1  289   1.751   0.472   0.514
   14PETL    O2  290   1.803   0.528   0.609
   14PETL    C2  291   1.766   0.326   0.490
   14PETL    C3  292   1.756   0.095   0.567
   14PETL   H31  293   1.757   0.030   0.654
   14PETL    C4  294   1.746   0.232   0.592
   14PETL   H41  295   1.736   0.266   0.694
   14PETL    C5  296   1.785   0.272   0.361
   14PETL   H51  297   1.788   0.339   0.275
   14PETL    C6  298   1.783   0.134   0.330
   14PETL   H61  299   1.783   0.099   0.228
   14PETL    C7  300   1.768   0.039   0.439
   14PETL    C8  301   1.746  -0.109   0.406
   14PETL    O3  302   1.735  -0.178   0.516
   14PETL    O4  303   1.742  -0.154   0.290
   14PETL    C9  304   1.727  -0.322   0.490
   14PETL   H91  305   1.674  -0.352   0.398
   14PETL   H92  306   1.827  -0.366   0.475
   14PETL   C10  307   1.678  -0.386   0.614
   14PETL   HX1  308   1.749  -0.400   0.699
   14PETL   HX2  309   1.607  -0.471   0.603
   15PETL    O1  310   1.614  -0.250   0.622
   15PETL    C1  311   1.530  -0.247   0.730
   15PETL    O2  312   1.536  -0.330   0.819
   15PETL    C2  313   1.442  -0.129   0.749
   15PETL    C3  314   1.345   0.080   0.674
   15PETL   H31  315   1.329   0.150   0.593
   15PETL    C4  316   1.435  -0.023   0.652
   15PETL   H41  317   1.496  -0.034   0.563
   15PETL    C5  318   1.376  -0.111   0.872
   15PETL   H51  319   1.386  -0.186   0.948
   15PETL    C6  320   1.288  -0.003   0.892
   15PETL   H61  321   1.232  -0.002   0.984
   15PETL    C7  322   1.262   0.094   0.785
   15PETL    C8  323   1.146   0.192   0.801
   15PETL    O3  324   1.147   0.272   0.692
   15PETL    O4  325   1.074   0.211   0.899
   15PETL    C9  326   1.053   0.382   0.700
   15PETL   H91  327   0.951   0.340   0.715
   15PETL   H92  328   1.081   0.452   0.781
   15PETL   C10  329   1.057   0.451   0.565
   15PETL   HX1  330   1.152   0.506   0.553
   15PETL   HX2  331   0.962   0.498   0.530
   16PETL    O1  332   1.052   0.308   0.553
   16PETL    C1  333   1.038   0.270   0.433
   16PETL    O2  334   1.023   0.354   0.342
   16PETL    C2  335   1.035   0.122   0.397
   16PETL    C3  336   0.986  -0.110   0.467
   16PETL   H31  337   0.948  -0.186   0.535
   16PETL    C4  338   0.993   0.027   0.494
   16PETL   H41  339   0.955   0.053   0.591
   16PETL    C5  340   1.048   0.078   0.265
   16PETL   H51  341   1.074   0.147   0.187
   16PETL    C6  342   1.051  -0.058   0.236
   16PETL   H61  343   1.073  -0.087   0.135
   16PETL    C7  344   1.014  -0.149   0.337
   16PETL    C8  345   0.993  -0.297   0.308
   16PETL    O3  346   1.027  -0.330   0.181
   16PETL    O4  347   0.936  -0.381   0.379
   16PETL    C9  348   1.004  -0.472   0.148
   16PETL   H91  349   1.063  -0.538   0.215
   16PETL   H92  350   0.893  -0.474   0.147
   16PETL   C10  351   1.059  -0.498   0.004
   16PETL   HX1  352   1.003  -0.578  -0.049
   16PETL   HX2  353   1.168  -0.500  -0.014
   17PETL    O1  354   0.995  -0.369  -0.024
   17PETL    C1  355   1.021  -0.341  -0.149
   17PETL    O2  356   1.077  -0.413  -0.231
   17PETL    C2  357   0.947  -0.218  -0.195
   17PETL    C3  358   0.816  -0.012  -0.176
   17PETL   H31  359   0.770   0.069  -0.120
   17PETL    C4  360   0.886  -0.113  -0.115
   17PETL   H41  361   0.912  -0.119  -0.011
   17PETL    C5  362   0.939  -0.200  -0.337
   17PETL   H51  363   1.000  -0.266  -0.397
   17PETL    C6  364   0.874  -0.089  -0.395
   17PETL   H61  365   0.875  -0.088  -0.502
   17PETL    C7  366   0.816   0.009  -0.310
   17PETL    C8  367   0.745   0.132  -0.371
   17PETL    O3  368   0.766   0.143  -0.503
   17PETL    O4  369   0.688   0.213  -0.300
   17PETL    C9  370   0.710   0.278  -0.540
   17PETL   H91  371   0.599   0.264  -0.527
   17PETL   H92  372   0.760   0.361  -0.484
   17PETL   C10  373   0.733   0.299  -0.688
   17PETL   HX1  374   0.832   0.336  -0.720
   17PETL   HX2  375   0.641   0.327  -0.743
   18PETL    O1  376   0.730   0.160  -0.642
   18PETL    C1  377   0.706   0.087  -0.752
   18PETL    O2  378   0.721   0.127  -0.865
   18PETL    C2  379   0.657  -0.050  -0.717
   18PETL    C3  380   0.528  -0.201  -0.571
   18PETL   H31  381   0.477  -0.224  -0.478
   18PETL    C4  382   0.579  -0.072  -0.601
   18PETL   H41  383   0.567   0.011  -0.533
   18PETL    C5  384   0.688  -0.152  -0.805
   18PETL   H51  385   0.734  -0.135  -0.902
   18PETL    C6  386   0.642  -0.280  -0.771
   18PETL   H61  387   0.669  -0.361  -0.836
   18PETL    C7  388   0.566  -0.311  -0.656
   18PETL    C8  389   0.517  -0.455  -0.629
   18PETL    O3  390   0.481  -0.474  -0.502
   18PETL    O4  391   0.544  -0.546  -0.707
   18PETL    C9  392   0.471  -0.615  -0.458
   18PETL   H91  393   0.405  -0.678  -0.521
   18PETL   H92  394   0.565  -0.667  -0.488
   18PETL   C10  395   0.441  -0.620  -0.313
   18PETL   HX1  396   0.519  -0.585  -0.242
   18PETL   HX2  397   0.376  -0.704  -0.283
   19PETL    O1  398   0.368  -0.511  -0.365
   19PETL    C1  399   0.304  -0.440  -0.268
   19PETL    O2  400   0.335  -0.438  -0.154
   19PETL    C2  401   0.196  -0.356  -0.331
   19PETL    C3  402   0.052  -0.166  -0.271
   19PETL   H31  403  -0.011  -0.117  -0.198
   19PETL    C4  404   0.120  -0.284  -0.241
   19PETL   H41  405   0.121  -0.315  -0.137
   19PETL    C5  406   0.200  -0.301  -0.464
   19PETL   H51  407   0.259  -0.345  -0.543
   19PETL    C6  408   0.131  -0.185  -0.497
   19PETL   H61  409   0.140  -0.158  -0.600
   19PETL    C7  410   0.054  -0.118  -0.405
   19PETL    C8  411  -0.040  -0.010  -0.459
   19PETL    O3  412  -0.079   0.077  -0.369
   19PETL    O4  413  -0.076  -0.007  -0.575
   19PETL    C9  414  -0.160   0.185  -0.429
   19PETL   H91  415  -0.087   0.259  -0.468
   19PETL   H92  416  -0.223   0.144  -0.510
   19PETL   C10  417  -0.235   0.259  -0.318
   19PETL   HX1  418  -0.336   0.301  -0.341
   19PETL   HX2  419  -0.182   0.297  -0.229
   20PETL    O1  420  -0.239   0.116  -0.313
   20PETL    C1  421  -0.295   0.069  -0.199
   20PETL    O2  422  -0.312   0.137  -0.099
   20PETL    C2  423  -0.337  -0.076  -0.214
   20PETL    C3  424  -0.362  -0.280  -0.343
   20PETL   H31  425  -0.342  -0.340  -0.430
   20PETL    C4  426  -0.324  -0.144  -0.338
   20PETL   H41  427  -0.263  -0.112  -0.419
   20PETL    C5  428  -0.387  -0.140  -0.100
   20PETL   H51  429  -0.374  -0.099  -0.001
   20PETL    C6  430  -0.403  -0.283  -0.104
   20PETL   H61  431  -0.444  -0.331  -0.015
   20PETL    C7  432  -0.410  -0.351  -0.226
   20PETL    C8  433  -0.456  -0.493  -0.242
   20PETL    O3  434  -0.527  -0.533  -0.145
   20PETL    O4  435  -0.421  -0.565  -0.333
   20PETL    C9  436  -0.574  -0.667  -0.153
   20PETL   H91  437  -0.609  -0.699  -0.253
   20PETL   H92  438  -0.491  -0.738  -0.136
   20PETL   C10  439  -0.687  -0.701  -0.052
   20PETL   HX1  440  -0.778  -0.646  -0.082
   20PETL   HX2  441  -0.657  -0.686   0.054
   20PETL   HZ1  442  -0.796  -0.859  -0.025
   20PETL    OZ  443  -0.711  -0.845  -0.067
  25.70900   9.88810   9.88810
