frame t= 49080.000
  443
    1PETL   H11    1   0.032  -0.107  -0.225
    1PETL    O1    2   0.016  -0.014  -0.246
    1PETL    C1    3   0.084   0.008  -0.364
    1PETL    O2    4   0.125  -0.087  -0.428
    1PETL    C2    5   0.096   0.148  -0.422
    1PETL    C3    6   0.128   0.291  -0.615
    1PETL   H31    7   0.143   0.312  -0.720
    1PETL    C4    8   0.136   0.168  -0.555
    1PETL   H41    9   0.158   0.083  -0.618
    1PETL    C5   10   0.057   0.262  -0.346
    1PETL   H51   11   0.032   0.258  -0.240
    1PETL    C6   12   0.054   0.387  -0.400
    1PETL   H61   13   0.018   0.471  -0.343
    1PETL    C7   14   0.084   0.405  -0.539
    1PETL    C8   15   0.055   0.538  -0.601
    1PETL    O3   16   0.073   0.539  -0.736
    1PETL    O4   17   0.016   0.637  -0.540
    1PETL    C9   18   0.079   0.671  -0.799
    1PETL   H91   19  -0.016   0.724  -0.775
    1PETL   H92   20   0.163   0.734  -0.761
    1PETL   C10   21   0.097   0.652  -0.951
    1PETL   HX1   22   0.200   0.625  -0.983
    1PETL   HX2   23   0.049   0.739  -1.001
    2PETL    O1   24   0.001   0.547  -0.944
    2PETL    C1   25  -0.005   0.487  -1.058
    2PETL    O2   26   0.045   0.534  -1.162
    2PETL    C2   27  -0.082   0.356  -1.050
    2PETL    C3   28  -0.103   0.130  -0.954
    2PETL   H31   29  -0.084   0.058  -0.876
    2PETL    C4   30  -0.056   0.261  -0.949
    2PETL   H41   31   0.016   0.287  -0.873
    2PETL    C5   32  -0.150   0.318  -1.168
    2PETL   H51   33  -0.142   0.375  -1.259
    2PETL    C6   34  -0.199   0.188  -1.181
    2PETL   H61   35  -0.236   0.157  -1.278
    2PETL    C7   36  -0.189   0.093  -1.066
    2PETL    C8   37  -0.260  -0.040  -1.077
    2PETL    O3   38  -0.257  -0.112  -0.956
    2PETL    O4   39  -0.297  -0.090  -1.185
    2PETL    C9   40  -0.282  -0.250  -0.986
    2PETL   H91   41  -0.390  -0.266  -1.003
    2PETL   H92   42  -0.227  -0.283  -1.076
    2PETL   C10   43  -0.227  -0.329  -0.869
    2PETL   HX1   44  -0.119  -0.348  -0.886
    2PETL   HX2   45  -0.287  -0.421  -0.854
    3PETL    O1   46  -0.269  -0.197  -0.824
    3PETL    C1   47  -0.236  -0.184  -0.699
    3PETL    O2   48  -0.175  -0.264  -0.634
    3PETL    C2   49  -0.278  -0.051  -0.632
    3PETL    C3   50  -0.378   0.178  -0.645
    3PETL   H31   51  -0.437   0.251  -0.697
    3PETL    C4   52  -0.347   0.056  -0.710
    3PETL   H41   53  -0.370   0.041  -0.815
    3PETL    C5   54  -0.232  -0.025  -0.501
    3PETL   H51   55  -0.180  -0.094  -0.437
    3PETL    C6   56  -0.262   0.099  -0.444
    3PETL   H61   57  -0.224   0.127  -0.348
    3PETL    C7   58  -0.346   0.193  -0.508
    3PETL    C8   59  -0.394   0.315  -0.439
    3PETL    O3   60  -0.327   0.333  -0.322
    3PETL    O4   61  -0.464   0.397  -0.490
    3PETL    C9   62  -0.343   0.470  -0.271
    3PETL   H91   63  -0.316   0.545  -0.349
    3PETL   H92   64  -0.447   0.485  -0.237
    3PETL   C10   65  -0.261   0.484  -0.145
    3PETL   HX1   66  -0.304   0.549  -0.065
    3PETL   HX2   67  -0.151   0.474  -0.154
    4PETL    O1   68  -0.337   0.359  -0.169
    4PETL    C1   69  -0.310   0.282  -0.062
    4PETL    O2   70  -0.246   0.320   0.037
    4PETL    C2   71  -0.375   0.147  -0.070
    4PETL    C3   72  -0.369  -0.092   0.002
    4PETL   H31   73  -0.324  -0.170   0.062
    4PETL    C4   74  -0.318   0.042   0.006
    4PETL   H41   75  -0.230   0.058   0.066
    4PETL    C5   76  -0.490   0.118  -0.144
    4PETL   H51   77  -0.546   0.190  -0.201
    4PETL    C6   78  -0.539  -0.009  -0.144
    4PETL   H61   79  -0.629  -0.037  -0.198
    4PETL    C7   80  -0.488  -0.114  -0.066
    4PETL    C8   81  -0.543  -0.250  -0.055
    4PETL    O3   82  -0.662  -0.260  -0.115
    4PETL    O4   83  -0.477  -0.341  -0.004
    4PETL    C9   84  -0.715  -0.394  -0.105
    4PETL   H91   85  -0.648  -0.472  -0.146
    4PETL   H92   86  -0.734  -0.423   0.001
    4PETL   C10   87  -0.843  -0.393  -0.194
    4PETL   HX1   88  -0.928  -0.453  -0.155
    4PETL   HX2   89  -0.819  -0.410  -0.301
    5PETL    O1   90  -0.830  -0.256  -0.141
    5PETL    C1   91  -0.923  -0.173  -0.188
    5PETL    O2   92  -0.990  -0.192  -0.289
    5PETL    C2   93  -0.923  -0.040  -0.111
    5PETL    C3   94  -0.847   0.103   0.069
    5PETL   H31   95  -0.773   0.116   0.146
    5PETL    C4   96  -0.837  -0.015  -0.005
    5PETL   H41   97  -0.757  -0.082   0.018
    5PETL    C5   98  -1.026   0.055  -0.140
    5PETL   H51   99  -1.092   0.041  -0.225
    5PETL    C6  100  -1.030   0.178  -0.076
    5PETL   H61  101  -1.088   0.264  -0.107
    5PETL    C7  102  -0.946   0.208   0.038
    5PETL    C8  103  -0.950   0.342   0.110
    5PETL    O3  104  -0.870   0.350   0.217
    5PETL    O4  105  -1.015   0.432   0.064
    5PETL    C9  106  -0.856   0.489   0.259
    5PETL   H91  107  -0.816   0.550   0.177
    5PETL   H92  108  -0.955   0.532   0.286
    5PETL   C10  109  -0.766   0.508   0.378
    5PETL   HX1  110  -0.794   0.538   0.482
    5PETL   HX2  111  -0.656   0.506   0.372
    6PETL    O1  112  -0.818   0.368   0.357
    6PETL    C1  113  -0.787   0.297   0.463
    6PETL    O2  114  -0.714   0.340   0.550
    6PETL    C2  115  -0.828   0.154   0.467
    6PETL    C3  116  -0.994  -0.020   0.400
    6PETL   H31  117  -1.085  -0.040   0.345
    6PETL    C4  118  -0.954   0.114   0.406
    6PETL   H41  119  -1.017   0.185   0.353
    6PETL    C5  120  -0.753   0.057   0.527
    6PETL   H51  121  -0.663   0.074   0.583
    6PETL    C6  122  -0.801  -0.076   0.529
    6PETL   H61  123  -0.740  -0.147   0.583
    6PETL    C7  124  -0.920  -0.119   0.473
    6PETL    C8  125  -0.949  -0.266   0.500
    6PETL    O3  126  -1.058  -0.312   0.433
    6PETL    O4  127  -0.885  -0.340   0.571
    6PETL    C9  128  -1.079  -0.456   0.448
    6PETL   H91  129  -1.004  -0.524   0.403
    6PETL   H92  130  -1.075  -0.491   0.553
    6PETL   C10  131  -1.200  -0.479   0.369
    6PETL   HX1  132  -1.263  -0.542   0.435
    6PETL   HX2  133  -1.200  -0.491   0.258
    7PETL    O1  134  -1.205  -0.340   0.397
    7PETL    C1  135  -1.306  -0.284   0.333
    7PETL    O2  136  -1.368  -0.340   0.244
    7PETL    C2  137  -1.332  -0.143   0.393
    7PETL    C3  138  -1.440   0.073   0.383
    7PETL   H31  139  -1.499   0.141   0.325
    7PETL    C4  140  -1.403  -0.048   0.324
    7PETL   H41  141  -1.446  -0.068   0.227
    7PETL    C5  142  -1.281  -0.116   0.522
    7PETL   H51  143  -1.233  -0.196   0.577
    7PETL    C6  144  -1.309   0.011   0.579
    7PETL   H61  145  -1.275   0.029   0.680
    7PETL    C7  146  -1.391   0.104   0.513
    7PETL    C8  147  -1.457   0.216   0.588
    7PETL    O3  148  -1.402   0.225   0.715
    7PETL    O4  149  -1.539   0.296   0.548
    7PETL    C9  150  -1.460   0.323   0.799
    7PETL   H91  151  -1.478   0.422   0.752
    7PETL   H92  152  -1.564   0.290   0.825
    7PETL   C10  153  -1.369   0.340   0.916
    7PETL   HX1  154  -1.414   0.359   1.016
    7PETL   HX2  155  -1.262   0.362   0.907
    8PETL    O1  156  -1.373   0.196   0.874
    8PETL    C1  157  -1.338   0.121   0.978
    8PETL    O2  158  -1.297   0.168   1.082
    8PETL    C2  159  -1.357  -0.027   0.952
    8PETL    C3  160  -1.459  -0.218   0.826
    8PETL   H31  161  -1.511  -0.255   0.739
    8PETL    C4  162  -1.441  -0.076   0.850
    8PETL   H41  163  -1.490   0.004   0.798
    8PETL    C5  164  -1.309  -0.122   1.043
    8PETL   H51  165  -1.260  -0.089   1.132
    8PETL    C6  166  -1.332  -0.262   1.025
    8PETL   H61  167  -1.303  -0.330   1.103
    8PETL    C7  168  -1.408  -0.312   0.913
    8PETL    C8  169  -1.414  -0.456   0.873
    8PETL    O3  170  -1.344  -0.532   0.964
    8PETL    O4  171  -1.472  -0.498   0.780
    8PETL    C9  172  -1.346  -0.671   0.920
    8PETL   H91  173  -1.444  -0.719   0.936
    8PETL   H92  174  -1.330  -0.686   0.811
    8PETL   C10  175  -1.235  -0.732   0.996
    8PETL   HX1  176  -1.181  -0.809   0.937
    8PETL   HX2  177  -1.272  -0.759   1.096
    9PETL    O1  178  -1.198  -0.592   0.982
    9PETL    C1  179  -1.077  -0.564   1.036
    9PETL    O2  180  -1.019  -0.638   1.117
    9PETL    C2  181  -1.029  -0.426   0.986
    9PETL    C3  182  -1.040  -0.229   0.850
    9PETL   H31  183  -1.067  -0.171   0.762
    9PETL    C4  184  -1.078  -0.358   0.870
    9PETL   H41  185  -1.145  -0.403   0.798
    9PETL    C5  186  -0.947  -0.363   1.079
    9PETL   H51  187  -0.902  -0.404   1.167
    9PETL    C6  188  -0.917  -0.227   1.061
    9PETL   H61  189  -0.847  -0.176   1.126
    9PETL    C7  190  -0.960  -0.164   0.944
    9PETL    C8  191  -0.930  -0.013   0.923
    9PETL    O3  192  -0.818   0.025   0.990
    9PETL    O4  193  -0.996   0.052   0.841
    9PETL    C9  194  -0.811   0.173   0.992
    9PETL   H91  195  -0.788   0.220   0.894
    9PETL   H92  196  -0.904   0.216   1.036
    9PETL   C10  197  -0.703   0.209   1.084
    9PETL   HX1  198  -0.711   0.208   1.196
    9PETL   HX2  199  -0.622   0.277   1.052
   10PETL    O1  200  -0.697   0.075   1.032
   10PETL    C1  201  -0.588   0.009   1.080
   10PETL    O2  202  -0.527   0.050   1.175
   10PETL    C2  203  -0.565  -0.124   1.017
   10PETL    C3  204  -0.480  -0.355   1.036
   10PETL   H31  205  -0.415  -0.423   1.089
   10PETL    C4  206  -0.484  -0.221   1.078
   10PETL   H41  207  -0.428  -0.195   1.165
   10PETL    C5  208  -0.623  -0.169   0.898
   10PETL   H51  209  -0.681  -0.104   0.835
   10PETL    C6  210  -0.600  -0.296   0.849
   10PETL   H61  211  -0.639  -0.315   0.750
   10PETL    C7  212  -0.537  -0.393   0.920
   10PETL    C8  213  -0.514  -0.536   0.869
   10PETL    O3  214  -0.551  -0.562   0.743
   10PETL    O4  215  -0.458  -0.619   0.936
   10PETL    C9  216  -0.543  -0.703   0.705
   10PETL   H91  217  -0.439  -0.738   0.685
   10PETL   H92  218  -0.592  -0.764   0.784
   10PETL   C10  219  -0.630  -0.725   0.577
   10PETL   HX1  220  -0.733  -0.759   0.602
   10PETL   HX2  221  -0.581  -0.786   0.498
   11PETL    O1  222  -0.614  -0.582   0.571
   11PETL    C1  223  -0.667  -0.525   0.463
   11PETL    O2  224  -0.737  -0.584   0.382
   11PETL    C2  225  -0.618  -0.383   0.432
   11PETL    C3  226  -0.468  -0.201   0.477
   11PETL   H31  227  -0.401  -0.147   0.543
   11PETL    C4  228  -0.508  -0.329   0.509
   11PETL   H41  229  -0.463  -0.388   0.587
   11PETL    C5  230  -0.676  -0.317   0.323
   11PETL   H51  231  -0.742  -0.362   0.250
   11PETL    C6  232  -0.610  -0.194   0.280
   11PETL   H61  233  -0.648  -0.149   0.190
   11PETL    C7  234  -0.511  -0.131   0.356
   11PETL    C8  235  -0.474   0.011   0.326
   11PETL    O3  236  -0.395   0.062   0.420
   11PETL    O4  237  -0.518   0.082   0.232
   11PETL    C9  238  -0.379   0.206   0.405
   11PETL   H91  239  -0.340   0.228   0.303
   11PETL   H92  240  -0.478   0.256   0.409
   11PETL   C10  241  -0.279   0.264   0.502
   11PETL   HX1  242  -0.301   0.271   0.610
   11PETL   HX2  243  -0.214   0.342   0.455
   12PETL    O1  244  -0.263   0.126   0.457
   12PETL    C1  245  -0.148   0.077   0.522
   12PETL    O2  246  -0.096   0.140   0.614
   12PETL    C2  247  -0.096  -0.059   0.480
   12PETL    C3  248  -0.075  -0.240   0.308
   12PETL   H31  249  -0.127  -0.282   0.225
   12PETL    C4  250  -0.128  -0.117   0.358
   12PETL   H41  251  -0.214  -0.070   0.314
   12PETL    C5  252   0.000  -0.126   0.553
   12PETL   H51  253   0.047  -0.079   0.638
   12PETL    C6  254   0.060  -0.245   0.504
   12PETL   H61  255   0.127  -0.304   0.563
   12PETL    C7  256   0.020  -0.305   0.379
   12PETL    C8  257   0.079  -0.437   0.334
   12PETL    O3  258   0.173  -0.485   0.413
   12PETL    O4  259   0.046  -0.493   0.232
   12PETL    C9  260   0.229  -0.609   0.364
   12PETL   H91  261   0.152  -0.685   0.338
   12PETL   H92  262   0.295  -0.594   0.276
   12PETL   C10  263   0.323  -0.666   0.468
   12PETL   HX1  264   0.412  -0.715   0.426
   12PETL   HX2  265   0.275  -0.701   0.563
   13PETL    O1  266   0.313  -0.519   0.457
   13PETL    C1  267   0.434  -0.469   0.484
   13PETL    O2  268   0.521  -0.533   0.547
   13PETL    C2  269   0.458  -0.335   0.414
   13PETL    C3  270   0.399  -0.153   0.257
   13PETL   H31  271   0.345  -0.130   0.165
   13PETL    C4  272   0.393  -0.285   0.303
   13PETL   H41  273   0.326  -0.348   0.247
   13PETL    C5  274   0.553  -0.244   0.474
   13PETL   H51  275   0.610  -0.278   0.559
   13PETL    C6  276   0.560  -0.114   0.433
   13PETL   H61  277   0.643  -0.061   0.479
   13PETL    C7  278   0.484  -0.067   0.324
   13PETL    C8  279   0.494   0.078   0.283
   13PETL    O3  280   0.421   0.112   0.181
   13PETL    O4  281   0.569   0.162   0.338
   13PETL    C9  282   0.431   0.252   0.143
   13PETL   H91  283   0.386   0.315   0.223
   13PETL   H92  284   0.538   0.284   0.143
   13PETL   C10  285   0.361   0.272   0.012
   13PETL   HX1  286   0.400   0.355  -0.051
   13PETL   HX2  287   0.253   0.265   0.032
   14PETL    O1  288   0.435   0.148   0.015
   14PETL    C1  289   0.402   0.079  -0.090
   14PETL    O2  290   0.326   0.120  -0.175
   14PETL    C2  291   0.474  -0.052  -0.092
   14PETL    C3  292   0.457  -0.290  -0.160
   14PETL   H31  293   0.399  -0.364  -0.215
   14PETL    C4  294   0.418  -0.157  -0.175
   14PETL   H41  295   0.332  -0.138  -0.237
   14PETL    C5  296   0.582  -0.085  -0.006
   14PETL   H51  297   0.640  -0.011   0.046
   14PETL    C6  298   0.623  -0.221  -0.001
   14PETL   H61  299   0.697  -0.258   0.068
   14PETL    C7  300   0.552  -0.324  -0.059
   14PETL    C8  301   0.578  -0.467  -0.026
   14PETL    O3  302   0.642  -0.492   0.085
   14PETL    O4  303   0.525  -0.556  -0.094
   14PETL    C9  304   0.654  -0.631   0.127
   14PETL   H91  305   0.557  -0.686   0.141
   14PETL   H92  306   0.733  -0.684   0.071
   14PETL   C10  307   0.720  -0.628   0.259
   14PETL   HX1  308   0.781  -0.720   0.277
   14PETL   HX2  309   0.645  -0.597   0.335
   15PETL    O1  310   0.758  -0.529   0.159
   15PETL    C1  311   0.878  -0.478   0.197
   15PETL    O2  312   0.913  -0.481   0.312
   15PETL    C2  313   0.970  -0.437   0.085
   15PETL    C3  314   1.182  -0.363   0.004
   15PETL   H31  315   1.270  -0.304   0.025
   15PETL    C4  316   1.095  -0.381   0.111
   15PETL   H41  317   1.138  -0.368   0.209
   15PETL    C5  318   0.929  -0.460  -0.051
   15PETL   H51  319   0.837  -0.511  -0.072
   15PETL    C6  320   1.013  -0.424  -0.159
   15PETL   H61  321   0.982  -0.441  -0.261
   15PETL    C7  322   1.148  -0.381  -0.129
   15PETL    C8  323   1.260  -0.371  -0.227
   15PETL    O3  324   1.223  -0.339  -0.347
   15PETL    O4  325   1.379  -0.397  -0.201
   15PETL    C9  326   1.323  -0.343  -0.442
   15PETL   H91  327   1.394  -0.261  -0.419
   15PETL   H92  328   1.369  -0.445  -0.445
   15PETL   C10  329   1.240  -0.299  -0.567
   15PETL   HX1  330   1.155  -0.364  -0.600
   15PETL   HX2  331   1.298  -0.228  -0.628
   16PETL    O1  332   1.179  -0.229  -0.452
   16PETL    C1  333   1.071  -0.152  -0.493
   16PETL    O2  334   1.044  -0.142  -0.611
   16PETL    C2  335   1.006  -0.067  -0.378
   16PETL    C3  336   1.002   0.034  -0.158
   16PETL   H31  337   1.046   0.045  -0.060
   16PETL    C4  338   1.059  -0.053  -0.253
   16PETL   H41  339   1.145  -0.113  -0.227
   16PETL    C5  340   0.893   0.005  -0.416
   16PETL   H51  341   0.842  -0.012  -0.509
   16PETL    C6  342   0.832   0.085  -0.314
   16PETL   H61  343   0.742   0.141  -0.338
   16PETL    C7  344   0.888   0.106  -0.189
   16PETL    C8  345   0.835   0.211  -0.096
   16PETL    O3  346   0.922   0.234   0.018
   16PETL    O4  347   0.731   0.269  -0.113
   16PETL    C9  348   0.873   0.336   0.113
   16PETL   H91  349   0.864   0.435   0.063
   16PETL   H92  350   0.771   0.310   0.146
   16PETL   C10  351   0.951   0.342   0.242
   16PETL   HX1  352   0.942   0.249   0.303
   16PETL   HX2  353   0.949   0.440   0.294
   17PETL    O1  354   1.011   0.330   0.107
   17PETL    C1  355   1.131   0.391   0.104
   17PETL    O2  356   1.182   0.448   0.200
   17PETL    C2  357   1.201   0.400  -0.035
   17PETL    C3  358   1.179   0.408  -0.280
   17PETL   H31  359   1.124   0.412  -0.373
   17PETL    C4  360   1.121   0.407  -0.150
   17PETL   H41  361   1.014   0.406  -0.137
   17PETL    C5  362   1.339   0.425  -0.046
   17PETL   H51  363   1.405   0.453   0.036
   17PETL    C6  364   1.396   0.452  -0.167
   17PETL   H61  365   1.499   0.485  -0.175
   17PETL    C7  366   1.318   0.437  -0.289
   17PETL    C8  367   1.383   0.449  -0.428
   17PETL    O3  368   1.302   0.436  -0.530
   17PETL    O4  369   1.502   0.482  -0.441
   17PETL    C9  370   1.361   0.478  -0.650
   17PETL   H91  371   1.458   0.433  -0.679
   17PETL   H92  372   1.297   0.448  -0.735
   17PETL   C10  373   1.365   0.627  -0.657
   17PETL   HX1  374   1.368   0.682  -0.753
   17PETL   HX2  375   1.409   0.673  -0.566
   18PETL    O1  376   1.241   0.557  -0.630
   18PETL    C1  377   1.134   0.641  -0.624
   18PETL    O2  378   1.147   0.761  -0.636
   18PETL    C2  379   0.996   0.578  -0.617
   18PETL    C3  380   0.765   0.600  -0.578
   18PETL   H31  381   0.681   0.668  -0.576
   18PETL    C4  382   0.887   0.659  -0.605
   18PETL   H41  383   0.896   0.767  -0.609
   18PETL    C5  384   0.986   0.438  -0.604
   18PETL   H51  385   1.071   0.372  -0.616
   18PETL    C6  386   0.869   0.377  -0.577
   18PETL   H61  387   0.862   0.269  -0.575
   18PETL    C7  388   0.754   0.463  -0.567
   18PETL    C8  389   0.620   0.410  -0.539
   18PETL    O3  390   0.608   0.278  -0.524
   18PETL    O4  391   0.526   0.488  -0.528
   18PETL    C9  392   0.472   0.224  -0.541
   18PETL   H91  393   0.394   0.268  -0.476
   18PETL   H92  394   0.434   0.252  -0.641
   18PETL   C10  395   0.483   0.070  -0.519
   18PETL   HX1  396   0.403   0.010  -0.566
   18PETL   HX2  397   0.526   0.048  -0.418
   19PETL    O1  398   0.568   0.144  -0.610
   19PETL    C1  399   0.645   0.063  -0.677
   19PETL    O2  400   0.658  -0.056  -0.649
   19PETL    C2  401   0.719   0.126  -0.799
   19PETL    C3  402   0.751   0.324  -0.938
   19PETL   H31  403   0.738   0.431  -0.955
   19PETL    C4  404   0.678   0.250  -0.836
   19PETL   H41  405   0.600   0.301  -0.783
   19PETL    C5  406   0.837   0.063  -0.858
   19PETL   H51  407   0.878  -0.030  -0.819
   19PETL    C6  408   0.907   0.136  -0.955
   19PETL   H61  409   0.996   0.088  -0.994
   19PETL    C7  410   0.867   0.265  -0.994
   19PETL    C8  411   0.951   0.349  -1.084
   19PETL    O3  412   1.053   0.279  -1.144
   19PETL    O4  413   0.935   0.466  -1.115
   19PETL    C9  414   1.101   0.333  -1.264
   19PETL   H91  415   1.032   0.306  -1.347
   19PETL   H92  416   1.110   0.444  -1.259
   19PETL   C10  417   1.241   0.271  -1.281
   19PETL   HX1  418   1.305   0.357  -1.306
   19PETL   HX2  419   1.253   0.177  -1.338
   20PETL    O1  420   1.234   0.241  -1.133
   20PETL    C1  421   1.354   0.211  -1.091
   20PETL    O2  422   1.457   0.201  -1.154
   20PETL    C2  423   1.355   0.188  -0.936
   20PETL    C3  424   1.475   0.121  -0.728
   20PETL   H31  425   1.576   0.107  -0.691
   20PETL    C4  426   1.472   0.142  -0.868
   20PETL   H41  427   1.568   0.127  -0.916
   20PETL    C5  428   1.240   0.203  -0.858
   20PETL   H51  429   1.143   0.233  -0.894
   20PETL    C6  430   1.236   0.160  -0.719
   20PETL   H61  431   1.148   0.182  -0.659
   20PETL    C7  432   1.356   0.135  -0.651
   20PETL    C8  433   1.347   0.141  -0.496
   20PETL    O3  434   1.470   0.141  -0.436
   20PETL    O4  435   1.245   0.154  -0.434
   20PETL    C9  436   1.470   0.126  -0.296
   20PETL   H91  437   1.575   0.151  -0.268
   20PETL   H92  438   1.400   0.193  -0.242
   20PETL   C10  439   1.447  -0.026  -0.268
   20PETL   HX1  440   1.525  -0.078  -0.329
   20PETL   HX2  441   1.349  -0.062  -0.304
   20PETL   HZ1  442   1.541  -0.131  -0.132
   20PETL    OZ  443   1.480  -0.057  -0.131
  25.71580   9.89070   9.89070
