frame t= 30750.000
  443
    1PETL   H11    1  -1.076   0.517   0.338
    1PETL    O1    2  -1.025   0.491   0.260
    1PETL    C1    3  -0.910   0.575   0.266
    1PETL    O2    4  -0.906   0.646   0.366
    1PETL    C2    5  -0.808   0.570   0.161
    1PETL    C3    6  -0.681   0.468  -0.022
    1PETL   H31    7  -0.661   0.389  -0.093
    1PETL    C4    8  -0.795   0.468   0.063
    1PETL   H41    9  -0.873   0.393   0.060
    1PETL    C5   10  -0.707   0.667   0.166
    1PETL   H51   11  -0.712   0.746   0.238
    1PETL    C6   12  -0.598   0.679   0.074
    1PETL   H61   13  -0.528   0.761   0.083
    1PETL    C7   14  -0.588   0.571  -0.024
    1PETL    C8   15  -0.471   0.566  -0.123
    1PETL    O3   16  -0.473   0.463  -0.206
    1PETL    O4   17  -0.381   0.652  -0.127
    1PETL    C9   18  -0.348   0.442  -0.268
    1PETL   H91   19  -0.329   0.514  -0.352
    1PETL   H92   20  -0.263   0.471  -0.201
    1PETL   C10   21  -0.345   0.306  -0.319
    1PETL   HX1   22  -0.359   0.225  -0.243
    1PETL   HX2   23  -0.297   0.277  -0.414
    2PETL    O1   24  -0.465   0.392  -0.340
    2PETL    C1   25  -0.550   0.314  -0.410
    2PETL    O2   26  -0.522   0.199  -0.438
    2PETL    C2   27  -0.673   0.380  -0.456
    2PETL    C3   28  -0.830   0.573  -0.465
    2PETL   H31   29  -0.848   0.674  -0.430
    2PETL    C4   30  -0.703   0.515  -0.426
    2PETL   H41   31  -0.633   0.585  -0.384
    2PETL    C5   32  -0.775   0.294  -0.515
    2PETL   H51   33  -0.756   0.190  -0.536
    2PETL    C6   34  -0.896   0.355  -0.558
    2PETL   H61   35  -0.974   0.291  -0.596
    2PETL    C7   36  -0.923   0.493  -0.529
    2PETL    C8   37  -1.052   0.543  -0.573
    2PETL    O3   38  -1.123   0.469  -0.668
    2PETL    O4   39  -1.097   0.648  -0.535
    2PETL    C9   40  -1.245   0.516  -0.734
    2PETL   H91   41  -1.337   0.500  -0.675
    2PETL   H92   42  -1.241   0.624  -0.759
    2PETL   C10   43  -1.251   0.436  -0.863
    2PETL   HX1   44  -1.271   0.499  -0.952
    2PETL   HX2   45  -1.309   0.344  -0.847
    3PETL    O1   46  -1.107   0.417  -0.836
    3PETL    C1   47  -1.044   0.347  -0.937
    3PETL    O2   48  -1.098   0.285  -1.018
    3PETL    C2   49  -0.899   0.348  -0.918
    3PETL    C3   50  -0.696   0.224  -0.885
    3PETL   H31   51  -0.655   0.123  -0.881
    3PETL    C4   52  -0.830   0.231  -0.934
    3PETL   H41   53  -0.873   0.143  -0.978
    3PETL    C5   54  -0.835   0.461  -0.868
    3PETL   H51   55  -0.893   0.550  -0.852
    3PETL    C6   56  -0.703   0.464  -0.831
    3PETL   H61   57  -0.654   0.549  -0.788
    3PETL    C7   58  -0.626   0.340  -0.835
    3PETL    C8   59  -0.489   0.344  -0.787
    3PETL    O3   60  -0.411   0.237  -0.814
    3PETL    O4   61  -0.452   0.437  -0.716
    3PETL    C9   62  -0.267   0.264  -0.776
    3PETL   H91   63  -0.241   0.363  -0.820
    3PETL   H92   64  -0.257   0.273  -0.666
    3PETL   C10   65  -0.186   0.154  -0.840
    3PETL   HX1   66  -0.110   0.111  -0.773
    3PETL   HX2   67  -0.168   0.158  -0.949
    4PETL    O1   68  -0.322   0.107  -0.798
    4PETL    C1   69  -0.319  -0.026  -0.802
    4PETL    O2   70  -0.217  -0.088  -0.846
    4PETL    C2   71  -0.439  -0.094  -0.750
    4PETL    C3   72  -0.585  -0.295  -0.754
    4PETL   H31   73  -0.604  -0.396  -0.786
    4PETL    C4   74  -0.463  -0.227  -0.789
    4PETL   H41   75  -0.384  -0.274  -0.846
    4PETL    C5   76  -0.539  -0.032  -0.675
    4PETL   H51   77  -0.521   0.073  -0.652
    4PETL    C6   78  -0.661  -0.092  -0.647
    4PETL   H61   79  -0.738  -0.031  -0.604
    4PETL    C7   80  -0.685  -0.224  -0.678
    4PETL    C8   81  -0.822  -0.282  -0.650
    4PETL    O3   82  -0.896  -0.202  -0.570
    4PETL    O4   83  -0.861  -0.386  -0.702
    4PETL    C9   84  -1.024  -0.258  -0.539
    4PETL   H91   85  -1.064  -0.291  -0.637
    4PETL   H92   86  -1.022  -0.350  -0.477
    4PETL   C10   87  -1.114  -0.146  -0.481
    4PETL   HX1   88  -1.176  -0.166  -0.392
    4PETL   HX2   89  -1.148  -0.076  -0.560
    5PETL    O1   90  -0.973  -0.135  -0.459
    5PETL    C1   91  -0.942  -0.023  -0.390
    5PETL    O2   92  -1.023   0.066  -0.376
    5PETL    C2   93  -0.809  -0.032  -0.320
    5PETL    C3   94  -0.620  -0.155  -0.232
    5PETL   H31   95  -0.560  -0.245  -0.228
    5PETL    C4   96  -0.741  -0.147  -0.310
    5PETL   H41   97  -0.774  -0.231  -0.368
    5PETL    C5   98  -0.770   0.077  -0.240
    5PETL   H51   99  -0.823   0.171  -0.240
    5PETL    C6  100  -0.647   0.078  -0.166
    5PETL   H61  101  -0.603   0.167  -0.124
    5PETL    C7  102  -0.570  -0.039  -0.166
    5PETL    C8  103  -0.437  -0.051  -0.091
    5PETL    O3  104  -0.392   0.057  -0.035
    5PETL    O4  105  -0.383  -0.160  -0.085
    5PETL    C9  106  -0.263   0.038   0.015
    5PETL   H91  107  -0.262  -0.013   0.115
    5PETL   H92  108  -0.196  -0.023  -0.050
    5PETL   C10  109  -0.195   0.174   0.030
    5PETL   HX1  110  -0.199   0.245  -0.056
    5PETL   HX2  111  -0.103   0.162   0.090
    6PETL    O1  112  -0.320   0.142   0.083
    6PETL    C1  113  -0.358   0.239   0.176
    6PETL    O2  114  -0.287   0.330   0.207
    6PETL    C2  115  -0.495   0.223   0.235
    6PETL    C3  116  -0.680   0.329   0.348
    6PETL   H31  117  -0.723   0.417   0.395
    6PETL    C4  118  -0.553   0.336   0.301
    6PETL   H41  119  -0.500   0.431   0.305
    6PETL    C5  120  -0.570   0.101   0.220
    6PETL   H51  121  -0.528   0.007   0.186
    6PETL    C6  122  -0.694   0.097   0.287
    6PETL   H61  123  -0.742   0.000   0.285
    6PETL    C7  124  -0.756   0.209   0.349
    6PETL    C8  125  -0.891   0.196   0.413
    6PETL    O3  126  -0.922   0.296   0.503
    6PETL    O4  127  -0.961   0.099   0.389
    6PETL    C9  128  -1.054   0.264   0.564
    6PETL   H91  129  -1.128   0.263   0.481
    6PETL   H92  130  -1.050   0.164   0.611
    6PETL   C10  131  -1.065   0.386   0.660
    6PETL   HX1  132  -1.115   0.375   0.758
    6PETL   HX2  133  -1.085   0.480   0.604
    7PETL    O1  134  -0.922   0.363   0.666
    7PETL    C1  135  -0.854   0.463   0.725
    7PETL    O2  136  -0.903   0.562   0.773
    7PETL    C2  137  -0.707   0.439   0.734
    7PETL    C3  138  -0.485   0.518   0.784
    7PETL   H31  139  -0.420   0.599   0.812
    7PETL    C4  140  -0.621   0.543   0.781
    7PETL   H41  141  -0.658   0.633   0.829
    7PETL    C5  142  -0.653   0.312   0.700
    7PETL   H51  143  -0.714   0.230   0.663
    7PETL    C6  144  -0.512   0.292   0.696
    7PETL   H61  145  -0.479   0.193   0.667
    7PETL    C7  146  -0.427   0.399   0.733
    7PETL    C8  147  -0.280   0.394   0.731
    7PETL    O3  148  -0.226   0.280   0.697
    7PETL    O4  149  -0.207   0.490   0.762
    7PETL    C9  150  -0.078   0.288   0.713
    7PETL   H91  151  -0.027   0.349   0.636
    7PETL   H92  152  -0.056   0.320   0.817
    7PETL   C10  153  -0.026   0.152   0.695
    7PETL   HX1  154   0.059   0.130   0.762
    7PETL   HX2  155  -0.011   0.102   0.596
    8PETL    O1  156  -0.148   0.128   0.759
    8PETL    C1  157  -0.186   0.004   0.768
    8PETL    O2  158  -0.121  -0.089   0.718
    8PETL    C2  159  -0.316  -0.020   0.834
    8PETL    C3  160  -0.510  -0.156   0.877
    8PETL   H31  161  -0.572  -0.242   0.851
    8PETL    C4  162  -0.384  -0.142   0.816
    8PETL   H41  163  -0.346  -0.226   0.760
    8PETL    C5  164  -0.371   0.077   0.918
    8PETL   H51  165  -0.322   0.173   0.928
    8PETL    C6  166  -0.498   0.058   0.970
    8PETL   H61  167  -0.539   0.137   1.031
    8PETL    C7  168  -0.579  -0.056   0.951
    8PETL    C8  169  -0.724  -0.083   1.003
    8PETL    O3  170  -0.774  -0.204   0.972
    8PETL    O4  171  -0.769  -0.007   1.086
    8PETL    C9  172  -0.906  -0.221   1.039
    8PETL   H91  173  -0.904  -0.200   1.148
    8PETL   H92  174  -0.973  -0.142   0.999
    8PETL   C10  175  -0.953  -0.363   1.007
    8PETL   HX1  176  -0.978  -0.385   0.901
    8PETL   HX2  177  -1.010  -0.424   1.081
    9PETL    O1  178  -0.808  -0.344   1.032
    9PETL    C1  179  -0.751  -0.461   1.012
    9PETL    O2  180  -0.813  -0.555   0.966
    9PETL    C2  181  -0.610  -0.477   1.049
    9PETL    C3  182  -0.406  -0.603   1.018
    9PETL   H31  183  -0.359  -0.684   0.964
    9PETL    C4  184  -0.543  -0.592   0.997
    9PETL   H41  185  -0.596  -0.665   0.936
    9PETL    C5  186  -0.535  -0.383   1.128
    9PETL   H51  187  -0.597  -0.301   1.161
    9PETL    C6  188  -0.398  -0.399   1.154
    9PETL   H61  189  -0.347  -0.318   1.203
    9PETL    C7  190  -0.336  -0.508   1.093
    9PETL    C8  191  -0.182  -0.518   1.088
    9PETL    O3  192  -0.124  -0.601   0.994
    9PETL    O4  193  -0.111  -0.468   1.174
    9PETL    C9  194   0.018  -0.616   1.015
    9PETL   H91  195   0.073  -0.520   1.005
    9PETL   H92  196   0.035  -0.643   1.122
    9PETL   C10  197   0.079  -0.725   0.927
    9PETL   HX1  198   0.063  -0.828   0.968
    9PETL   HX2  199   0.180  -0.704   0.886
   10PETL    O1  200  -0.045  -0.665   0.881
   10PETL    C1  201  -0.065  -0.698   0.749
   10PETL    O2  202   0.029  -0.748   0.688
   10PETL    C2  203  -0.212  -0.682   0.707
   10PETL    C3  204  -0.383  -0.740   0.556
   10PETL   H31  205  -0.417  -0.812   0.483
   10PETL    C4  206  -0.258  -0.762   0.611
   10PETL   H41  207  -0.213  -0.857   0.586
   10PETL    C5  208  -0.277  -0.564   0.737
   10PETL   H51  209  -0.225  -0.500   0.807
   10PETL    C6  210  -0.404  -0.541   0.679
   10PETL   H61  211  -0.459  -0.464   0.730
   10PETL    C7  212  -0.463  -0.628   0.589
   10PETL    C8  213  -0.603  -0.620   0.529
   10PETL    O3  214  -0.643  -0.494   0.524
   10PETL    O4  215  -0.664  -0.716   0.498
   10PETL    C9  216  -0.777  -0.473   0.475
   10PETL   H91  217  -0.779  -0.462   0.364
   10PETL   H92  218  -0.849  -0.553   0.507
   10PETL   C10  219  -0.828  -0.343   0.531
   10PETL   HX1  220  -0.856  -0.350   0.638
   10PETL   HX2  221  -0.881  -0.278   0.458
   11PETL    O1  222  -0.680  -0.335   0.509
   11PETL    C1  223  -0.630  -0.218   0.539
   11PETL    O2  224  -0.687  -0.128   0.600
   11PETL    C2  225  -0.489  -0.196   0.488
   11PETL    C3  226  -0.280  -0.244   0.363
   11PETL   H31  227  -0.237  -0.310   0.288
   11PETL    C4  228  -0.407  -0.283   0.404
   11PETL   H41  229  -0.451  -0.377   0.375
   11PETL    C5  230  -0.434  -0.073   0.530
   11PETL   H51  231  -0.489  -0.005   0.592
   11PETL    C6  232  -0.317  -0.033   0.474
   11PETL   H61  233  -0.277   0.066   0.493
   11PETL    C7  234  -0.237  -0.115   0.392
   11PETL    C8  235  -0.102  -0.066   0.343
   11PETL    O3  236  -0.038  -0.151   0.256
   11PETL    O4  237  -0.057   0.045   0.366
   11PETL    C9  238   0.096  -0.111   0.213
   11PETL   H91  239   0.132  -0.168   0.125
   11PETL   H92  240   0.100  -0.002   0.190
   11PETL   C10  241   0.182  -0.152   0.330
   11PETL   HX1  242   0.162  -0.093   0.422
   11PETL   HX2  243   0.286  -0.173   0.301
   12PETL    O1  244   0.081  -0.244   0.289
   12PETL    C1  245   0.100  -0.363   0.352
   12PETL    O2  246   0.174  -0.385   0.448
   12PETL    C2  247   0.009  -0.470   0.299
   12PETL    C3  248  -0.122  -0.560   0.115
   12PETL   H31  249  -0.164  -0.553   0.016
   12PETL    C4  250  -0.045  -0.459   0.173
   12PETL   H41  251  -0.007  -0.378   0.112
   12PETL    C5  252  -0.010  -0.595   0.372
   12PETL   H51  253   0.037  -0.597   0.469
   12PETL    C6  254  -0.067  -0.699   0.308
   12PETL   H61  255  -0.080  -0.791   0.363
   12PETL    C7  256  -0.128  -0.683   0.181
   12PETL    C8  257  -0.219  -0.786   0.121
   12PETL    O3  258  -0.207  -0.901   0.186
   12PETL    O4  259  -0.296  -0.768   0.027
   12PETL    C9  260  -0.293  -1.000   0.141
   12PETL   H91  261  -0.384  -0.956   0.095
   12PETL   H92  262  -0.238  -1.068   0.072
   12PETL   C10  263  -0.344  -1.073   0.265
   12PETL   HX1  264  -0.350  -1.184   0.260
   12PETL   HX2  265  -0.415  -1.022   0.333
   13PETL    O1  266  -0.207  -1.036   0.279
   13PETL    C1  267  -0.165  -1.078   0.391
   13PETL    O2  268  -0.236  -1.138   0.477
   13PETL    C2  269  -0.017  -1.079   0.408
   13PETL    C3  270   0.165  -1.110   0.567
   13PETL   H31  271   0.194  -1.139   0.666
   13PETL    C4  272   0.029  -1.116   0.534
   13PETL   H41  273  -0.039  -1.142   0.614
   13PETL    C5  274   0.070  -1.044   0.304
   13PETL   H51  275   0.036  -1.009   0.208
   13PETL    C6  276   0.209  -1.051   0.328
   13PETL   H61  277   0.281  -1.041   0.249
   13PETL    C7  278   0.258  -1.069   0.464
   13PETL    C8  279   0.408  -1.052   0.492
   13PETL    O3  280   0.482  -1.013   0.383
   13PETL    O4  281   0.460  -1.067   0.602
   13PETL    C9  282   0.626  -1.005   0.393
   13PETL   H91  283   0.661  -1.091   0.454
   13PETL   H92  284   0.680  -1.027   0.299
   13PETL   C10  285   0.652  -0.863   0.434
   13PETL   HX1  286   0.748  -0.821   0.398
   13PETL   HX2  287   0.633  -0.842   0.542
   14PETL    O1  288   0.543  -0.846   0.345
   14PETL    C1  289   0.521  -0.712   0.334
   14PETL    O2  290   0.584  -0.635   0.405
   14PETL    C2  291   0.419  -0.669   0.225
   14PETL    C3  292   0.297  -0.493   0.102
   14PETL   H31  293   0.280  -0.386   0.109
   14PETL    C4  294   0.386  -0.538   0.203
   14PETL   H41  295   0.430  -0.467   0.273
   14PETL    C5  296   0.346  -0.762   0.154
   14PETL   H51  297   0.353  -0.865   0.184
   14PETL    C6  298   0.256  -0.724   0.052
   14PETL   H61  299   0.202  -0.798  -0.005
   14PETL    C7  300   0.241  -0.585   0.017
   14PETL    C8  301   0.150  -0.542  -0.091
   14PETL    O3  302   0.146  -0.408  -0.106
   14PETL    O4  303   0.083  -0.617  -0.158
   14PETL    C9  304   0.045  -0.356  -0.204
   14PETL   H91  305   0.067  -0.391  -0.306
   14PETL   H92  306  -0.054  -0.392  -0.172
   14PETL   C10  307   0.055  -0.204  -0.209
   14PETL   HX1  308  -0.010  -0.158  -0.131
   14PETL   HX2  309   0.056  -0.148  -0.306
   15PETL    O1  310   0.176  -0.257  -0.155
   15PETL    C1  311   0.252  -0.155  -0.103
   15PETL    O2  312   0.205  -0.044  -0.082
   15PETL    C2  313   0.397  -0.205  -0.069
   15PETL    C3  314   0.590  -0.355  -0.111
   15PETL   H31  315   0.636  -0.440  -0.161
   15PETL    C4  316   0.452  -0.319  -0.126
   15PETL   H41  317   0.400  -0.390  -0.189
   15PETL    C5  318   0.478  -0.133   0.018
   15PETL   H51  319   0.438  -0.045   0.063
   15PETL    C6  320   0.614  -0.163   0.035
   15PETL   H61  321   0.684  -0.104   0.091
   15PETL    C7  322   0.672  -0.263  -0.042
   15PETL    C8  323   0.818  -0.301  -0.037
   15PETL    O3  324   0.897  -0.206   0.019
   15PETL    O4  325   0.864  -0.403  -0.088
   15PETL    C9  326   1.042  -0.235   0.002
   15PETL   H91  327   1.076  -0.317   0.068
   15PETL   H92  328   1.053  -0.262  -0.105
   15PETL   C10  329   1.123  -0.110   0.028
   15PETL   HX1  330   1.213  -0.110  -0.038
   15PETL   HX2  331   1.119  -0.059   0.126
   16PETL    O1  332   0.997  -0.095  -0.047
   16PETL    C1  333   0.956   0.032  -0.054
   16PETL    O2  334   1.015   0.122   0.006
   16PETL    C2  335   0.834   0.051  -0.137
   16PETL    C3  336   0.668  -0.025  -0.291
   16PETL   H31  337   0.638  -0.106  -0.355
   16PETL    C4  338   0.792  -0.041  -0.234
   16PETL   H41  339   0.847  -0.131  -0.260
   16PETL    C5  340   0.757   0.159  -0.094
   16PETL   H51  341   0.785   0.208  -0.002
   16PETL    C6  342   0.630   0.177  -0.158
   16PETL   H61  343   0.567   0.256  -0.120
   16PETL    C7  344   0.584   0.085  -0.262
   16PETL    C8  345   0.454   0.104  -0.347
   16PETL    O3  346   0.428   0.226  -0.389
   16PETL    O4  347   0.391   0.005  -0.373
   16PETL    C9  348   0.298   0.223  -0.460
   16PETL   H91  349   0.296   0.136  -0.528
   16PETL   H92  350   0.208   0.203  -0.398
   16PETL   C10  351   0.295   0.356  -0.535
   16PETL   HX1  352   0.277   0.452  -0.481
   16PETL   HX2  353   0.250   0.358  -0.637
   17PETL    O1  354   0.440   0.311  -0.520
   17PETL    C1  355   0.524   0.417  -0.543
   17PETL    O2  356   0.491   0.525  -0.583
   17PETL    C2  357   0.661   0.383  -0.484
   17PETL    C3  358   0.832   0.205  -0.457
   17PETL   H31  359   0.868   0.110  -0.491
   17PETL    C4  360   0.706   0.248  -0.500
   17PETL   H41  361   0.665   0.177  -0.571
   17PETL    C5  362   0.744   0.473  -0.420
   17PETL   H51  363   0.719   0.576  -0.401
   17PETL    C6  364   0.863   0.423  -0.360
   17PETL   H61  365   0.919   0.495  -0.302
   17PETL    C7  366   0.910   0.288  -0.375
   17PETL    C8  367   1.043   0.247  -0.323
   17PETL    O3  368   1.112   0.343  -0.255
   17PETL    O4  369   1.082   0.134  -0.341
   17PETL    C9  370   1.234   0.291  -0.200
   17PETL   H91  371   1.227   0.192  -0.150
   17PETL   H92  372   1.310   0.280  -0.281
   17PETL   C10  373   1.273   0.393  -0.101
   17PETL   HX1  374   1.380   0.420  -0.099
   17PETL   HX2  375   1.222   0.392  -0.002
   18PETL    O1  376   1.194   0.463  -0.198
   18PETL    C1  377   1.184   0.594  -0.166
   18PETL    O2  378   1.230   0.637  -0.067
   18PETL    C2  379   1.123   0.683  -0.276
   18PETL    C3  380   1.040   0.901  -0.349
   18PETL   H31  381   1.021   1.005  -0.327
   18PETL    C4  382   1.088   0.814  -0.244
   18PETL   H41  383   1.088   0.836  -0.139
   18PETL    C5  384   1.132   0.643  -0.410
   18PETL   H51  385   1.196   0.558  -0.431
   18PETL    C6  386   1.073   0.723  -0.512
   18PETL   H61  387   1.077   0.690  -0.615
   18PETL    C7  388   1.025   0.856  -0.479
   18PETL    C8  389   0.983   0.963  -0.581
   18PETL    O3  390   1.010   0.919  -0.702
   18PETL    O4  391   0.936   1.073  -0.558
   18PETL    C9  392   0.967   1.018  -0.804
   18PETL   H91  393   0.858   1.034  -0.786
   18PETL   H92  394   1.031   1.109  -0.799
   18PETL   C10  395   0.970   0.945  -0.934
   18PETL   HX1  396   1.017   0.990  -1.024
   18PETL   HX2  397   0.894   0.867  -0.956
   19PETL    O1  398   1.067   0.891  -0.840
   19PETL    C1  399   1.161   0.815  -0.901
   19PETL    O2  400   1.151   0.774  -1.016
   19PETL    C2  401   1.274   0.778  -0.808
   19PETL    C3  402   1.443   0.619  -0.755
   19PETL   H31  403   1.497   0.528  -0.777
   19PETL    C4  404   1.326   0.649  -0.829
   19PETL   H41  405   1.291   0.587  -0.911
   19PETL    C5  406   1.325   0.862  -0.710
   19PETL   H51  407   1.296   0.966  -0.704
   19PETL    C6  408   1.438   0.826  -0.637
   19PETL   H61  409   1.473   0.895  -0.563
   19PETL    C7  410   1.494   0.699  -0.653
   19PETL    C8  411   1.600   0.659  -0.565
   19PETL    O3  412   1.588   0.535  -0.525
   19PETL    O4  413   1.684   0.738  -0.523
   19PETL    C9  414   1.700   0.502  -0.438
   19PETL   H91  415   1.793   0.517  -0.496
   19PETL   H92  416   1.689   0.564  -0.347
   19PETL   C10  417   1.682   0.361  -0.392
   19PETL   HX1  418   1.664   0.353  -0.282
   19PETL   HX2  419   1.755   0.292  -0.440
   20PETL    O1  420   1.556   0.363  -0.462
   20PETL    C1  421   1.524   0.242  -0.505
   20PETL    O2  422   1.595   0.141  -0.498
   20PETL    C2  423   1.385   0.233  -0.563
   20PETL    C3  424   1.218   0.091  -0.670
   20PETL   H31  425   1.191  -0.005  -0.711
   20PETL    C4  426   1.345   0.105  -0.608
   20PETL   H41  427   1.409   0.019  -0.600
   20PETL    C5  428   1.300   0.339  -0.584
   20PETL   H51  429   1.324   0.440  -0.554
   20PETL    C6  430   1.179   0.325  -0.644
   20PETL   H61  431   1.111   0.408  -0.656
   20PETL    C7  432   1.135   0.199  -0.687
   20PETL    C8  433   0.996   0.195  -0.757
   20PETL    O3  434   0.935   0.074  -0.753
   20PETL    O4  435   0.948   0.298  -0.802
   20PETL    C9  436   0.815   0.069  -0.833
   20PETL   H91  437   0.749   0.154  -0.806
   20PETL   H92  438   0.843   0.078  -0.940
   20PETL   C10  439   0.748  -0.066  -0.813
   20PETL   HX1  440   0.820  -0.149  -0.833
   20PETL   HX2  441   0.667  -0.055  -0.889
   20PETL   HZ1  442   0.684  -0.175  -0.662
   20PETL    OZ  443   0.693  -0.083  -0.687
  25.72370   9.89370   9.89370
