frame t= 37910.000
  443
    1PETL   H11    1   0.688   0.472  -0.750
    1PETL    O1    2   0.602   0.433  -0.731
    1PETL    C1    3   0.538   0.393  -0.845
    1PETL    O2    4   0.596   0.398  -0.953
    1PETL    C2    5   0.391   0.356  -0.831
    1PETL    C3    6   0.196   0.292  -0.693
    1PETL   H31    7   0.155   0.261  -0.597
    1PETL    C4    8   0.332   0.319  -0.716
    1PETL   H41    9   0.400   0.308  -0.633
    1PETL    C5   10   0.306   0.368  -0.942
    1PETL   H51   11   0.350   0.397  -1.036
    1PETL    C6   12   0.171   0.340  -0.932
    1PETL   H61   13   0.118   0.356  -1.024
    1PETL    C7   14   0.112   0.308  -0.807
    1PETL    C8   15  -0.031   0.265  -0.803
    1PETL    O3   16  -0.094   0.287  -0.916
    1PETL    O4   17  -0.082   0.206  -0.710
    1PETL    C9   18  -0.213   0.214  -0.935
    1PETL   H91   19  -0.174   0.114  -0.960
    1PETL   H92   20  -0.276   0.215  -0.843
    1PETL   C10   21  -0.289   0.273  -1.046
    1PETL   HX1   22  -0.398   0.296  -1.046
    1PETL   HX2   23  -0.244   0.262  -1.148
    2PETL    O1   24  -0.200   0.364  -0.969
    2PETL    C1   25  -0.224   0.489  -1.014
    2PETL    O2   26  -0.288   0.515  -1.118
    2PETL    C2   27  -0.182   0.598  -0.918
    2PETL    C3   28  -0.100   0.696  -0.712
    2PETL   H31   29  -0.078   0.682  -0.607
    2PETL    C4   30  -0.151   0.587  -0.783
    2PETL   H41   31  -0.161   0.493  -0.730
    2PETL    C5   32  -0.183   0.724  -0.980
    2PETL   H51   33  -0.213   0.741  -1.082
    2PETL    C6   34  -0.130   0.834  -0.905
    2PETL   H61   35  -0.132   0.926  -0.960
    2PETL    C7   36  -0.093   0.823  -0.767
    2PETL    C8   37  -0.066   0.952  -0.700
    2PETL    O3   38  -0.123   0.960  -0.584
    2PETL    O4   39   0.007   1.037  -0.754
    2PETL    C9   40  -0.103   1.088  -0.522
    2PETL   H91   41   0.003   1.119  -0.523
    2PETL   H92   42  -0.151   1.174  -0.574
    2PETL   C10   43  -0.151   1.090  -0.373
    2PETL   HX1   44  -0.228   1.169  -0.362
    2PETL   HX2   45  -0.083   1.065  -0.289
    3PETL    O1   46  -0.198   0.975  -0.455
    3PETL    C1   47  -0.283   0.896  -0.391
    3PETL    O2   48  -0.309   0.904  -0.273
    3PETL    C2   49  -0.359   0.795  -0.472
    3PETL    C3   50  -0.475   0.714  -0.682
    3PETL   H31   51  -0.515   0.736  -0.780
    3PETL    C4   52  -0.403   0.812  -0.608
    3PETL   H41   53  -0.375   0.907  -0.650
    3PETL    C5   54  -0.390   0.670  -0.414
    3PETL   H51   55  -0.357   0.652  -0.313
    3PETL    C6   56  -0.451   0.568  -0.494
    3PETL   H61   57  -0.462   0.467  -0.459
    3PETL    C7   58  -0.502   0.586  -0.623
    3PETL    C8   59  -0.540   0.470  -0.718
    3PETL    O3   60  -0.569   0.359  -0.644
    3PETL    O4   61  -0.548   0.476  -0.841
    3PETL    C9   62  -0.573   0.239  -0.726
    3PETL   H91   63  -0.673   0.194  -0.739
    3PETL   H92   64  -0.521   0.242  -0.824
    3PETL   C10   65  -0.491   0.151  -0.642
    3PETL   HX1   66  -0.382   0.168  -0.635
    3PETL   HX2   67  -0.516   0.043  -0.632
    4PETL    O1   68  -0.562   0.232  -0.542
    4PETL    C1   69  -0.557   0.182  -0.424
    4PETL    O2   70  -0.482   0.086  -0.401
    4PETL    C2   71  -0.631   0.263  -0.312
    4PETL    C3   72  -0.803   0.421  -0.247
    4PETL   H31   73  -0.884   0.483  -0.282
    4PETL    C4   74  -0.742   0.341  -0.343
    4PETL   H41   75  -0.791   0.334  -0.438
    4PETL    C5   76  -0.571   0.275  -0.178
    4PETL   H51   77  -0.487   0.210  -0.159
    4PETL    C6   78  -0.622   0.361  -0.088
    4PETL   H61   79  -0.597   0.357   0.017
    4PETL    C7   80  -0.738   0.440  -0.119
    4PETL    C8   81  -0.794   0.545  -0.025
    4PETL    O3   82  -0.750   0.538   0.103
    4PETL    O4   83  -0.872   0.631  -0.061
    4PETL    C9   84  -0.799   0.655   0.182
    4PETL   H91   85  -0.782   0.756   0.141
    4PETL   H92   86  -0.904   0.637   0.210
    4PETL   C10   87  -0.716   0.640   0.306
    4PETL   HX1   88  -0.762   0.652   0.406
    4PETL   HX2   89  -0.621   0.696   0.304
    5PETL    O1   90  -0.721   0.512   0.240
    5PETL    C1   91  -0.660   0.420   0.327
    5PETL    O2   92  -0.604   0.451   0.432
    5PETL    C2   93  -0.671   0.279   0.287
    5PETL    C3   94  -0.584   0.055   0.304
    5PETL   H31   95  -0.519  -0.014   0.353
    5PETL    C4   96  -0.569   0.188   0.335
    5PETL   H41   97  -0.491   0.218   0.404
    5PETL    C5   98  -0.772   0.232   0.201
    5PETL   H51   99  -0.842   0.307   0.171
    5PETL    C6  100  -0.785   0.095   0.182
    5PETL   H61  101  -0.868   0.055   0.124
    5PETL    C7  102  -0.697   0.007   0.241
    5PETL    C8  103  -0.709  -0.142   0.215
    5PETL    O3  104  -0.614  -0.211   0.273
    5PETL    O4  105  -0.799  -0.191   0.143
    5PETL    C9  106  -0.625  -0.349   0.257
    5PETL   H91  107  -0.725  -0.373   0.299
    5PETL   H92  108  -0.621  -0.391   0.155
    5PETL   C10  109  -0.508  -0.421   0.344
    5PETL   HX1  110  -0.415  -0.427   0.284
    5PETL   HX2  111  -0.549  -0.514   0.387
    6PETL    O1  112  -0.545  -0.303   0.413
    6PETL    C1  113  -0.434  -0.259   0.481
    6PETL    O2  114  -0.320  -0.306   0.460
    6PETL    C2  115  -0.465  -0.159   0.586
    6PETL    C3  116  -0.631  -0.022   0.704
    6PETL   H31  117  -0.732   0.010   0.722
    6PETL    C4  118  -0.597  -0.126   0.615
    6PETL   H41  119  -0.678  -0.180   0.569
    6PETL    C5  120  -0.364  -0.084   0.649
    6PETL   H51  121  -0.266  -0.098   0.609
    6PETL    C6  122  -0.394   0.022   0.735
    6PETL   H61  123  -0.313   0.087   0.767
    6PETL    C7  124  -0.524   0.059   0.762
    6PETL    C8  125  -0.571   0.170   0.853
    6PETL    O3  126  -0.462   0.235   0.917
    6PETL    O4  127  -0.691   0.199   0.871
    6PETL    C9  128  -0.513   0.340   1.005
    6PETL   H91  129  -0.580   0.420   0.969
    6PETL   H92  130  -0.563   0.294   1.093
    6PETL   C10  131  -0.382   0.403   1.050
    6PETL   HX1  132  -0.405   0.439   1.153
    6PETL   HX2  133  -0.317   0.470   0.992
    7PETL    O1  134  -0.358   0.264   1.041
    7PETL    C1  135  -0.236   0.230   1.089
    7PETL    O2  136  -0.156   0.308   1.136
    7PETL    C2  137  -0.200   0.080   1.084
    7PETL    C3  138  -0.036  -0.105   1.093
    7PETL   H31  139   0.069  -0.130   1.092
    7PETL    C4  140  -0.070   0.028   1.096
    7PETL   H41  141   0.013   0.096   1.106
    7PETL    C5  142  -0.302  -0.018   1.097
    7PETL   H51  143  -0.406   0.010   1.093
    7PETL    C6  144  -0.270  -0.154   1.092
    7PETL   H61  145  -0.349  -0.228   1.087
    7PETL    C7  146  -0.139  -0.200   1.082
    7PETL    C8  147  -0.115  -0.347   1.074
    7PETL    O3  148   0.014  -0.385   1.067
    7PETL    O4  149  -0.206  -0.428   1.057
    7PETL    C9  150   0.025  -0.524   1.070
    7PETL   H91  151   0.013  -0.558   1.176
    7PETL   H92  152  -0.037  -0.585   1.002
    7PETL   C10  153   0.164  -0.558   1.031
    7PETL   HX1  154   0.181  -0.660   0.988
    7PETL   HX2  155   0.238  -0.535   1.110
    8PETL    O1  156   0.138  -0.446   0.943
    8PETL    C1  157   0.251  -0.410   0.883
    8PETL    O2  158   0.365  -0.444   0.910
    8PETL    C2  159   0.205  -0.312   0.778
    8PETL    C3  160   0.037  -0.185   0.651
    8PETL   H31  161  -0.065  -0.181   0.616
    8PETL    C4  162   0.068  -0.280   0.750
    8PETL   H41  163  -0.008  -0.345   0.790
    8PETL    C5  164   0.303  -0.230   0.719
    8PETL   H51  165   0.407  -0.237   0.746
    8PETL    C6  166   0.271  -0.127   0.630
    8PETL   H61  167   0.353  -0.080   0.578
    8PETL    C7  168   0.144  -0.111   0.585
    8PETL    C8  169   0.105  -0.004   0.479
    8PETL    O3  170  -0.020  -0.016   0.438
    8PETL    O4  171   0.190   0.066   0.429
    8PETL    C9  172  -0.068   0.099   0.367
    8PETL   H91  173  -0.089   0.180   0.440
    8PETL   H92  174  -0.001   0.130   0.284
    8PETL   C10  175  -0.206   0.068   0.311
    8PETL   HX1  176  -0.219   0.116   0.211
    8PETL   HX2  177  -0.293   0.073   0.379
    9PETL    O1  178  -0.145  -0.055   0.316
    9PETL    C1  179  -0.208  -0.148   0.236
    9PETL    O2  180  -0.318  -0.112   0.191
    9PETL    C2  181  -0.140  -0.282   0.206
    9PETL    C3  182   0.015  -0.460   0.271
    9PETL   H31  183   0.100  -0.487   0.331
    9PETL    C4  184  -0.041  -0.341   0.295
    9PETL   H41  185  -0.001  -0.277   0.372
    9PETL    C5  186  -0.190  -0.366   0.110
    9PETL   H51  187  -0.266  -0.346   0.037
    9PETL    C6  188  -0.148  -0.498   0.098
    9PETL   H61  189  -0.190  -0.549   0.014
    9PETL    C7  190  -0.042  -0.551   0.178
    9PETL    C8  191   0.005  -0.699   0.163
    9PETL    O3  192   0.079  -0.736   0.268
    9PETL    O4  193  -0.030  -0.769   0.067
    9PETL    C9  194   0.170  -0.848   0.254
    9PETL   H91  195   0.114  -0.942   0.239
    9PETL   H92  196   0.244  -0.831   0.174
    9PETL   C10  197   0.244  -0.861   0.388
    9PETL   HX1  198   0.340  -0.807   0.393
    9PETL   HX2  199   0.230  -0.955   0.447
   10PETL    O1  200   0.129  -0.773   0.411
   10PETL    C1  201   0.103  -0.755   0.543
   10PETL    O2  202   0.179  -0.795   0.633
   10PETL    C2  203  -0.015  -0.674   0.577
   10PETL    C3  204  -0.155  -0.555   0.729
   10PETL   H31  205  -0.168  -0.493   0.816
   10PETL    C4  206  -0.031  -0.602   0.690
   10PETL   H41  207   0.056  -0.587   0.752
   10PETL    C5  208  -0.132  -0.696   0.498
   10PETL   H51  209  -0.123  -0.748   0.404
   10PETL    C6  210  -0.255  -0.636   0.526
   10PETL   H61  211  -0.347  -0.657   0.473
   10PETL    C7  212  -0.269  -0.564   0.649
   10PETL    C8  213  -0.399  -0.508   0.698
   10PETL    O3  214  -0.508  -0.548   0.628
   10PETL    O4  215  -0.411  -0.435   0.792
   10PETL    C9  216  -0.637  -0.515   0.695
   10PETL   H91  217  -0.657  -0.590   0.774
   10PETL   H92  218  -0.640  -0.410   0.733
   10PETL   C10  219  -0.753  -0.528   0.593
   10PETL   HX1  220  -0.738  -0.452   0.514
   10PETL   HX2  221  -0.854  -0.539   0.639
   11PETL    O1  222  -0.651  -0.632   0.616
   11PETL    C1  223  -0.652  -0.720   0.518
   11PETL    O2  224  -0.727  -0.705   0.421
   11PETL    C2  225  -0.561  -0.833   0.536
   11PETL    C3  226  -0.433  -1.001   0.425
   11PETL   H31  227  -0.416  -1.061   0.337
   11PETL    C4  228  -0.535  -0.911   0.422
   11PETL   H41  229  -0.589  -0.891   0.331
   11PETL    C5  230  -0.492  -0.859   0.654
   11PETL   H51  231  -0.526  -0.811   0.744
   11PETL    C6  232  -0.377  -0.939   0.648
   11PETL   H61  233  -0.324  -0.943   0.743
   11PETL    C7  234  -0.340  -1.009   0.529
   11PETL    C8  235  -0.219  -1.101   0.526
   11PETL    O3  236  -0.198  -1.168   0.409
   11PETL    O4  237  -0.145  -1.110   0.624
   11PETL    C9  238  -0.068  -1.229   0.405
   11PETL   H91  239   0.007  -1.149   0.392
   11PETL   H92  240  -0.044  -1.278   0.503
   11PETL   C10  241  -0.078  -1.327   0.294
   11PETL   HX1  242  -0.127  -1.419   0.329
   11PETL   HX2  243   0.020  -1.333   0.244
   12PETL    O1  244  -0.174  -1.215   0.272
   12PETL    C1  245  -0.219  -1.214   0.145
   12PETL    O2  246  -0.216  -1.315   0.072
   12PETL    C2  247  -0.268  -1.079   0.100
   12PETL    C3  248  -0.423  -0.941  -0.040
   12PETL   H31  249  -0.484  -0.935  -0.130
   12PETL    C4  250  -0.357  -1.066  -0.012
   12PETL   H41  251  -0.382  -1.153  -0.070
   12PETL    C5  252  -0.246  -0.961   0.171
   12PETL   H51  253  -0.183  -0.964   0.259
   12PETL    C6  254  -0.306  -0.837   0.137
   12PETL   H61  255  -0.275  -0.753   0.198
   12PETL    C7  256  -0.396  -0.824   0.030
   12PETL    C8  257  -0.461  -0.686   0.009
   12PETL    O3  258  -0.526  -0.676  -0.109
   12PETL    O4  259  -0.459  -0.601   0.093
   12PETL    C9  260  -0.581  -0.549  -0.141
   12PETL   H91  261  -0.661  -0.523  -0.069
   12PETL   H92  262  -0.493  -0.481  -0.135
   12PETL   C10  263  -0.638  -0.562  -0.275
   12PETL   HX1  264  -0.616  -0.472  -0.337
   12PETL   HX2  265  -0.733  -0.618  -0.274
   13PETL    O1  266  -0.516  -0.653  -0.251
   13PETL    C1  267  -0.500  -0.734  -0.360
   13PETL    O2  268  -0.583  -0.743  -0.447
   13PETL    C2  269  -0.363  -0.793  -0.369
   13PETL    C3  270  -0.142  -0.837  -0.279
   13PETL   H31  271  -0.073  -0.836  -0.196
   13PETL    C4  272  -0.263  -0.769  -0.270
   13PETL   H41  273  -0.281  -0.696  -0.191
   13PETL    C5  274  -0.329  -0.873  -0.481
   13PETL   H51  275  -0.404  -0.887  -0.556
   13PETL    C6  276  -0.213  -0.956  -0.481
   13PETL   H61  277  -0.204  -1.023  -0.564
   13PETL    C7  278  -0.117  -0.937  -0.381
   13PETL    C8  279   0.021  -1.011  -0.385
   13PETL    O3  280   0.121  -0.957  -0.312
   13PETL    O4  281   0.037  -1.099  -0.468
   13PETL    C9  282   0.256  -0.994  -0.360
   13PETL   H91  283   0.266  -1.094  -0.409
   13PETL   H92  284   0.290  -0.918  -0.434
   13PETL   C10  285   0.357  -0.987  -0.251
   13PETL   HX1  286   0.460  -0.955  -0.276
   13PETL   HX2  287   0.344  -1.053  -0.163
   14PETL    O1  288   0.249  -0.882  -0.248
   14PETL    C1  289   0.296  -0.785  -0.167
   14PETL    O2  290   0.393  -0.800  -0.092
   14PETL    C2  291   0.223  -0.649  -0.183
   14PETL    C3  292   0.035  -0.518  -0.262
   14PETL   H31  293  -0.049  -0.499  -0.327
   14PETL    C4  294   0.112  -0.632  -0.273
   14PETL   H41  295   0.095  -0.707  -0.348
   14PETL    C5  296   0.253  -0.543  -0.087
   14PETL   H51  297   0.323  -0.555  -0.004
   14PETL    C6  298   0.163  -0.428  -0.076
   14PETL   H61  299   0.179  -0.365   0.010
   14PETL    C7  300   0.053  -0.413  -0.159
   14PETL    C8  301  -0.047  -0.299  -0.157
   14PETL    O3  302   0.003  -0.201  -0.080
   14PETL    O4  303  -0.140  -0.299  -0.230
   14PETL    C9  304  -0.088  -0.089  -0.084
   14PETL   H91  305  -0.110  -0.061  -0.188
   14PETL   H92  306  -0.182  -0.113  -0.030
   14PETL   C10  307  -0.022   0.021  -0.012
   14PETL   HX1  308   0.003   0.001   0.094
   14PETL   HX2  309  -0.023   0.128  -0.044
   15PETL    O1  310   0.080  -0.058  -0.086
   15PETL    C1  311   0.195   0.004  -0.040
   15PETL    O2  312   0.199   0.102   0.032
   15PETL    C2  313   0.321  -0.059  -0.101
   15PETL    C3  314   0.562  -0.035  -0.119
   15PETL   H31  315   0.659   0.007  -0.095
   15PETL    C4  316   0.445   0.001  -0.060
   15PETL   H41  317   0.444   0.080   0.015
   15PETL    C5  318   0.319  -0.162  -0.193
   15PETL   H51  319   0.226  -0.208  -0.226
   15PETL    C6  320   0.445  -0.199  -0.248
   15PETL   H61  321   0.436  -0.279  -0.320
   15PETL    C7  322   0.562  -0.128  -0.227
   15PETL    C8  323   0.692  -0.186  -0.298
   15PETL    O3  324   0.809  -0.148  -0.242
   15PETL    O4  325   0.688  -0.261  -0.395
   15PETL    C9  326   0.918  -0.194  -0.321
   15PETL   H91  327   0.939  -0.303  -0.310
   15PETL   H92  328   0.900  -0.182  -0.430
   15PETL   C10  329   1.032  -0.101  -0.277
   15PETL   HX1  330   1.022  -0.006  -0.333
   15PETL   HX2  331   1.130  -0.155  -0.273
   16PETL    O1  332   0.951  -0.099  -0.157
   16PETL    C1  333   1.000  -0.021  -0.068
   16PETL    O2  334   1.107   0.041  -0.080
   16PETL    C2  335   0.909  -0.017   0.061
   16PETL    C3  336   0.821   0.094   0.253
   16PETL   H31  337   0.841   0.178   0.319
   16PETL    C4  338   0.916   0.090   0.146
   16PETL   H41  339   0.987   0.171   0.136
   16PETL    C5  340   0.801  -0.111   0.084
   16PETL   H51  341   0.798  -0.185   0.004
   16PETL    C6  342   0.716  -0.106   0.189
   16PETL   H61  343   0.640  -0.182   0.206
   16PETL    C7  344   0.717   0.006   0.275
   16PETL    C8  345   0.612   0.039   0.375
   16PETL    O3  346   0.615   0.171   0.420
   16PETL    O4  347   0.525  -0.038   0.401
   16PETL    C9  348   0.503   0.200   0.504
   16PETL   H91  349   0.410   0.185   0.445
   16PETL   H92  350   0.495   0.141   0.597
   16PETL   C10  351   0.517   0.349   0.538
   16PETL   HX1  352   0.595   0.371   0.613
   16PETL   HX2  353   0.418   0.400   0.547
   17PETL    O1  354   0.564   0.313   0.403
   17PETL    C1  355   0.623   0.431   0.347
   17PETL    O2  356   0.643   0.527   0.422
   17PETL    C2  357   0.662   0.407   0.202
   17PETL    C3  358   0.828   0.463   0.031
   17PETL   H31  359   0.910   0.519  -0.011
   17PETL    C4  360   0.780   0.479   0.162
   17PETL   H41  361   0.842   0.534   0.230
   17PETL    C5  362   0.593   0.325   0.111
   17PETL   H51  363   0.516   0.265   0.158
   17PETL    C6  364   0.648   0.298  -0.016
   17PETL   H61  365   0.604   0.225  -0.081
   17PETL    C7  366   0.764   0.368  -0.058
   17PETL    C8  367   0.817   0.350  -0.199
   17PETL    O3  368   0.756   0.253  -0.267
   17PETL    O4  369   0.911   0.409  -0.241
   17PETL    C9  370   0.791   0.259  -0.406
   17PETL   H91  371   0.764   0.359  -0.445
   17PETL   H92  372   0.896   0.230  -0.421
   17PETL   C10  373   0.705   0.161  -0.479
   17PETL   HX1  374   0.715   0.051  -0.468
   17PETL   HX2  375   0.689   0.198  -0.582
   18PETL    O1  376   0.612   0.216  -0.380
   18PETL    C1  377   0.483   0.167  -0.393
   18PETL    O2  378   0.455   0.065  -0.455
   18PETL    C2  379   0.376   0.242  -0.324
   18PETL    C3  380   0.291   0.436  -0.191
   18PETL   H31  381   0.299   0.525  -0.131
   18PETL    C4  382   0.403   0.358  -0.235
   18PETL   H41  383   0.498   0.403  -0.213
   18PETL    C5  384   0.245   0.207  -0.350
   18PETL   H51  385   0.220   0.118  -0.408
   18PETL    C6  386   0.140   0.301  -0.324
   18PETL   H61  387   0.038   0.266  -0.329
   18PETL    C7  388   0.161   0.409  -0.232
   18PETL    C8  389   0.040   0.495  -0.197
   18PETL    O3  390   0.070   0.626  -0.174
   18PETL    O4  391  -0.078   0.452  -0.190
   18PETL    C9  392  -0.042   0.704  -0.146
   18PETL   H91  393  -0.105   0.709  -0.237
   18PETL   H92  394  -0.103   0.671  -0.059
   18PETL   C10  395   0.004   0.839  -0.109
   18PETL   HX1  396   0.059   0.834  -0.013
   18PETL   HX2  397  -0.067   0.921  -0.133
   19PETL    O1  398   0.070   0.781  -0.223
   19PETL    C1  399   0.174   0.867  -0.259
   19PETL    O2  400   0.213   0.966  -0.201
   19PETL    C2  401   0.223   0.823  -0.393
   19PETL    C3  402   0.372   0.865  -0.567
   19PETL   H31  403   0.445   0.934  -0.605
   19PETL    C4  404   0.317   0.899  -0.448
   19PETL   H41  405   0.372   0.980  -0.401
   19PETL    C5  406   0.165   0.718  -0.472
   19PETL   H51  407   0.078   0.670  -0.430
   19PETL    C6  408   0.225   0.682  -0.592
   19PETL   H61  409   0.186   0.593  -0.638
   19PETL    C7  410   0.328   0.759  -0.651
   19PETL    C8  411   0.371   0.740  -0.793
   19PETL    O3  412   0.501   0.781  -0.814
   19PETL    O4  413   0.303   0.687  -0.876
   19PETL    C9  414   0.537   0.769  -0.949
   19PETL   H91  415   0.538   0.660  -0.970
   19PETL   H92  416   0.467   0.823  -1.016
   19PETL   C10  417   0.677   0.825  -0.965
   19PETL   HX1  418   0.688   0.930  -0.998
   19PETL   HX2  419   0.764   0.759  -0.988
   20PETL    O1  420   0.639   0.817  -0.826
   20PETL    C1  421   0.744   0.865  -0.756
   20PETL    O2  422   0.840   0.917  -0.806
   20PETL    C2  423   0.736   0.852  -0.606
   20PETL    C3  424   0.650   0.737  -0.411
   20PETL   H31  425   0.580   0.667  -0.366
   20PETL    C4  426   0.658   0.745  -0.550
   20PETL   H41  427   0.608   0.677  -0.617
   20PETL    C5  428   0.822   0.921  -0.529
   20PETL   H51  429   0.886   0.992  -0.577
   20PETL    C6  430   0.809   0.910  -0.388
   20PETL   H61  431   0.874   0.973  -0.328
   20PETL    C7  432   0.712   0.831  -0.324
   20PETL    C8  433   0.666   0.845  -0.182
   20PETL    O3  434   0.771   0.858  -0.103
   20PETL    O4  435   0.549   0.840  -0.151
   20PETL    C9  436   0.733   0.839   0.036
   20PETL   H91  437   0.661   0.918   0.063
   20PETL   H92  438   0.692   0.739   0.058
   20PETL   C10  439   0.851   0.850   0.124
   20PETL   HX1  440   0.893   0.951   0.106
   20PETL   HX2  441   0.928   0.774   0.093
   20PETL   HZ1  442   0.843   0.900   0.323
   20PETL    OZ  443   0.802   0.837   0.263
  25.70660   9.88720   9.88720
