frame t= 44610.000
  443
    1PETL   H11    1  -2.256   0.852   0.012
    1PETL    O1    2  -2.184   0.878  -0.045
    1PETL    C1    3  -2.075   0.797  -0.018
    1PETL    O2    4  -2.088   0.703   0.059
    1PETL    C2    5  -1.942   0.838  -0.071
    1PETL    C3    6  -1.813   0.973  -0.225
    1PETL   H31    7  -1.811   1.043  -0.307
    1PETL    C4    8  -1.935   0.918  -0.192
    1PETL   H41    9  -2.021   0.937  -0.255
    1PETL    C5   10  -1.821   0.791  -0.014
    1PETL   H51   11  -1.831   0.742   0.082
    1PETL    C6   12  -1.700   0.848  -0.052
    1PETL   H61   13  -1.612   0.836   0.007
    1PETL    C7   14  -1.693   0.941  -0.161
    1PETL    C8   15  -1.559   1.005  -0.194
    1PETL    O3   16  -1.457   0.973  -0.099
    1PETL    O4   17  -1.536   1.082  -0.285
    1PETL    C9   18  -1.338   1.054  -0.106
    1PETL   H91   19  -1.318   1.080  -0.212
    1PETL   H92   20  -1.343   1.156  -0.062
    1PETL   C10   21  -1.226   0.977  -0.032
    1PETL   HX1   22  -1.227   1.008   0.075
    1PETL   HX2   23  -1.130   0.975  -0.090
    2PETL    O1   24  -1.330   0.882  -0.061
    2PETL    C1   25  -1.303   0.762  -0.011
    2PETL    O2   26  -1.236   0.741   0.086
    2PETL    C2   27  -1.393   0.656  -0.076
    2PETL    C3   28  -1.521   0.578  -0.267
    2PETL   H31   29  -1.563   0.614  -0.359
    2PETL    C4   30  -1.452   0.679  -0.200
    2PETL   H41   31  -1.460   0.781  -0.238
    2PETL    C5   32  -1.399   0.520  -0.022
    2PETL   H51   33  -1.369   0.498   0.078
    2PETL    C6   34  -1.468   0.422  -0.096
    2PETL   H61   35  -1.487   0.326  -0.051
    2PETL    C7   36  -1.524   0.443  -0.222
    2PETL    C8   37  -1.605   0.339  -0.302
    2PETL    O3   38  -1.651   0.386  -0.416
    2PETL    O4   39  -1.616   0.222  -0.259
    2PETL    C9   40  -1.722   0.280  -0.488
    2PETL   H91   41  -1.657   0.191  -0.499
    2PETL   H92   42  -1.814   0.247  -0.435
    2PETL   C10   43  -1.749   0.348  -0.627
    2PETL   HX1   44  -1.822   0.428  -0.646
    2PETL   HX2   45  -1.741   0.278  -0.713
    3PETL    O1   46  -1.622   0.392  -0.583
    3PETL    C1   47  -1.567   0.463  -0.679
    3PETL    O2   48  -1.633   0.499  -0.778
    3PETL    C2   49  -1.414   0.494  -0.661
    3PETL    C3   50  -1.203   0.590  -0.738
    3PETL   H31   51  -1.147   0.640  -0.814
    3PETL    C4   52  -1.340   0.574  -0.757
    3PETL   H41   53  -1.392   0.605  -0.846
    3PETL    C5   54  -1.354   0.451  -0.547
    3PETL   H51   55  -1.405   0.384  -0.478
    3PETL    C6   56  -1.216   0.475  -0.525
    3PETL   H61   57  -1.163   0.447  -0.436
    3PETL    C7   58  -1.138   0.545  -0.623
    3PETL    C8   59  -0.998   0.584  -0.597
    3PETL    O3   60  -0.940   0.532  -0.486
    3PETL    O4   61  -0.935   0.658  -0.672
    3PETL    C9   62  -0.803   0.574  -0.475
    3PETL   H91   63  -0.748   0.550  -0.569
    3PETL   H92   64  -0.797   0.684  -0.461
    3PETL   C10   65  -0.743   0.508  -0.352
    3PETL   HX1   66  -0.773   0.542  -0.250
    3PETL   HX2   67  -0.638   0.475  -0.358
    4PETL    O1   68  -0.846   0.416  -0.402
    4PETL    C1   69  -0.845   0.310  -0.329
    4PETL    O2   70  -0.783   0.302  -0.220
    4PETL    C2   71  -0.945   0.200  -0.377
    4PETL    C3   72  -1.098   0.105  -0.544
    4PETL   H31   73  -1.156   0.106  -0.635
    4PETL    C4   74  -1.008   0.202  -0.500
    4PETL   H41   75  -0.992   0.276  -0.578
    4PETL    C5   76  -0.970   0.091  -0.288
    4PETL   H51   77  -0.927   0.100  -0.189
    4PETL    C6   78  -1.050  -0.013  -0.334
    4PETL   H61   79  -1.063  -0.091  -0.261
    4PETL    C7   80  -1.111  -0.009  -0.461
    4PETL    C8   81  -1.209  -0.113  -0.504
    4PETL    O3   82  -1.232  -0.213  -0.416
    4PETL    O4   83  -1.265  -0.101  -0.611
    4PETL    C9   84  -1.330  -0.303  -0.477
    4PETL   H91   85  -1.431  -0.254  -0.474
    4PETL   H92   86  -1.303  -0.342  -0.578
    4PETL   C10   87  -1.339  -0.423  -0.383
    4PETL   HX1   88  -1.312  -0.522  -0.426
    4PETL   HX2   89  -1.414  -0.426  -0.301
    5PETL    O1   90  -1.222  -0.337  -0.367
    5PETL    C1   91  -1.130  -0.405  -0.292
    5PETL    O2   92  -1.162  -0.499  -0.223
    5PETL    C2   93  -0.986  -0.368  -0.324
    5PETL    C3   94  -0.746  -0.394  -0.266
    5PETL   H31   95  -0.674  -0.432  -0.195
    5PETL    C4   96  -0.879  -0.414  -0.234
    5PETL   H41   97  -0.902  -0.436  -0.130
    5PETL    C5   98  -0.944  -0.313  -0.443
    5PETL   H51   99  -1.014  -0.273  -0.516
    5PETL    C6  100  -0.810  -0.285  -0.470
    5PETL   H61  101  -0.777  -0.238  -0.561
    5PETL    C7  102  -0.713  -0.335  -0.392
    5PETL    C8  103  -0.577  -0.320  -0.452
    5PETL    O3  104  -0.486  -0.350  -0.364
    5PETL    O4  105  -0.564  -0.299  -0.570
    5PETL    C9  106  -0.366  -0.369  -0.427
    5PETL   H91  107  -0.375  -0.448  -0.505
    5PETL   H92  108  -0.338  -0.282  -0.491
    5PETL   C10  109  -0.264  -0.375  -0.320
    5PETL   HX1  110  -0.173  -0.310  -0.322
    5PETL   HX2  111  -0.240  -0.477  -0.286
    6PETL    O1  112  -0.375  -0.311  -0.264
    6PETL    C1  113  -0.350  -0.269  -0.137
    6PETL    O2  114  -0.254  -0.298  -0.077
    6PETL    C2  115  -0.454  -0.172  -0.072
    6PETL    C3  116  -0.518  -0.047   0.129
    6PETL   H31  117  -0.498  -0.025   0.233
    6PETL    C4  118  -0.431  -0.138   0.062
    6PETL   H41  119  -0.350  -0.176   0.122
    6PETL    C5  120  -0.553  -0.105  -0.138
    6PETL   H51  121  -0.572  -0.119  -0.244
    6PETL    C6  122  -0.636  -0.006  -0.072
    6PETL   H61  123  -0.714   0.038  -0.132
    6PETL    C7  124  -0.623   0.020   0.061
    6PETL    C8  125  -0.733   0.096   0.136
    6PETL    O3  126  -0.691   0.156   0.253
    6PETL    O4  127  -0.848   0.094   0.097
    6PETL    C9  128  -0.806   0.218   0.317
    6PETL   H91  129  -0.858   0.294   0.256
    6PETL   H92  130  -0.883   0.151   0.359
    6PETL   C10  131  -0.756   0.285   0.448
    6PETL   HX1  132  -0.832   0.319   0.520
    6PETL   HX2  133  -0.674   0.356   0.421
    7PETL    O1  134  -0.731   0.142   0.431
    7PETL    C1  135  -0.654   0.091   0.530
    7PETL    O2  136  -0.612   0.157   0.622
    7PETL    C2  137  -0.618  -0.054   0.507
    7PETL    C3  138  -0.473  -0.242   0.581
    7PETL   H31  139  -0.412  -0.285   0.658
    7PETL    C4  140  -0.520  -0.104   0.594
    7PETL   H41  141  -0.482  -0.045   0.676
    7PETL    C5  142  -0.679  -0.153   0.419
    7PETL   H51  143  -0.751  -0.118   0.345
    7PETL    C6  144  -0.630  -0.279   0.407
    7PETL   H61  145  -0.675  -0.341   0.331
    7PETL    C7  146  -0.530  -0.325   0.486
    7PETL    C8  147  -0.497  -0.473   0.471
    7PETL    O3  148  -0.419  -0.520   0.566
    7PETL    O4  149  -0.556  -0.547   0.391
    7PETL    C9  150  -0.393  -0.664   0.564
    7PETL   H91  151  -0.488  -0.718   0.588
    7PETL   H92  152  -0.355  -0.690   0.463
    7PETL   C10  153  -0.293  -0.676   0.672
    7PETL   HX1  154  -0.215  -0.752   0.648
    7PETL   HX2  155  -0.324  -0.658   0.776
    8PETL    O1  156  -0.268  -0.559   0.592
    8PETL    C1  157  -0.163  -0.486   0.629
    8PETL    O2  158  -0.092  -0.516   0.727
    8PETL    C2  159  -0.137  -0.366   0.541
    8PETL    C3  160  -0.147  -0.244   0.331
    8PETL   H31  161  -0.172  -0.245   0.225
    8PETL    C4  162  -0.167  -0.360   0.402
    8PETL   H41  163  -0.203  -0.447   0.348
    8PETL    C5  164  -0.088  -0.251   0.604
    8PETL   H51  165  -0.078  -0.247   0.711
    8PETL    C6  166  -0.081  -0.131   0.528
    8PETL   H61  167  -0.045  -0.042   0.577
    8PETL    C7  168  -0.104  -0.123   0.392
    8PETL    C8  169  -0.087   0.004   0.315
    8PETL    O3  170  -0.139  -0.003   0.191
    8PETL    O4  171  -0.042   0.108   0.357
    8PETL    C9  172  -0.122   0.117   0.116
    8PETL   H91  173  -0.205   0.186   0.145
    8PETL   H92  174  -0.025   0.169   0.132
    8PETL   C10  175  -0.134   0.089  -0.037
    8PETL   HX1  176  -0.078   0.156  -0.106
    8PETL   HX2  177  -0.223   0.040  -0.081
    9PETL    O1  178  -0.053   0.006   0.058
    9PETL    C1  179   0.001  -0.097  -0.007
    9PETL    O2  180  -0.018  -0.128  -0.126
    9PETL    C2  181   0.098  -0.181   0.072
    9PETL    C3  182   0.255  -0.196   0.256
    9PETL   H31  183   0.305  -0.150   0.340
    9PETL    C4  184   0.168  -0.119   0.175
    9PETL   H41  185   0.163  -0.012   0.183
    9PETL    C5  186   0.100  -0.324   0.071
    9PETL   H51  187   0.036  -0.379   0.003
    9PETL    C6  188   0.191  -0.404   0.141
    9PETL   H61  189   0.192  -0.512   0.133
    9PETL    C7  190   0.269  -0.336   0.238
    9PETL    C8  191   0.362  -0.410   0.327
    9PETL    O3  192   0.459  -0.331   0.391
    9PETL    O4  193   0.366  -0.532   0.342
    9PETL    C9  194   0.548  -0.426   0.460
    9PETL   H91  195   0.502  -0.458   0.557
    9PETL   H92  196   0.578  -0.512   0.397
    9PETL   C10  197   0.674  -0.343   0.469
    9PETL   HX1  198   0.708  -0.296   0.375
    9PETL   HX2  199   0.755  -0.369   0.540
   10PETL    O1  200   0.562  -0.276   0.525
   10PETL    C1  201   0.596  -0.140   0.546
   10PETL    O2  202   0.705  -0.096   0.506
   10PETL    C2  203   0.486  -0.064   0.611
   10PETL    C3  204   0.394   0.147   0.679
   10PETL   H31  205   0.413   0.252   0.695
   10PETL    C4  206   0.502   0.069   0.646
   10PETL   H41  207   0.600   0.115   0.630
   10PETL    C5  208   0.356  -0.119   0.638
   10PETL   H51  209   0.349  -0.223   0.610
   10PETL    C6  210   0.250  -0.043   0.687
   10PETL   H61  211   0.156  -0.099   0.687
   10PETL    C7  212   0.263   0.090   0.706
   10PETL    C8  213   0.152   0.175   0.750
   10PETL    O3  214   0.029   0.118   0.757
   10PETL    O4  215   0.177   0.289   0.782
   10PETL    C9  216  -0.076   0.211   0.802
   10PETL   H91  217  -0.050   0.273   0.889
   10PETL   H92  218  -0.095   0.281   0.718
   10PETL   C10  219  -0.202   0.126   0.822
   10PETL   HX1  220  -0.242   0.063   0.741
   10PETL   HX2  221  -0.259   0.171   0.906
   11PETL    O1  222  -0.075   0.067   0.870
   11PETL    C1  223  -0.104  -0.048   0.944
   11PETL    O2  224  -0.221  -0.089   0.959
   11PETL    C2  225   0.015  -0.110   1.005
   11PETL    C3  226   0.253  -0.122   1.045
   11PETL   H31  227   0.348  -0.071   1.055
   11PETL    C4  228   0.140  -0.049   1.016
   11PETL   H41  229   0.154   0.056   0.998
   11PETL    C5  230   0.008  -0.251   1.025
   11PETL   H51  231  -0.082  -0.299   0.990
   11PETL    C6  232   0.122  -0.321   1.063
   11PETL   H61  233   0.114  -0.430   1.063
   11PETL    C7  234   0.249  -0.260   1.081
   11PETL    C8  235   0.377  -0.327   1.139
   11PETL    O3  236   0.378  -0.464   1.122
   11PETL    O4  237   0.466  -0.262   1.196
   11PETL    C9  238   0.498  -0.515   1.189
   11PETL   H91  239   0.583  -0.492   1.121
   11PETL   H92  240   0.521  -0.459   1.282
   11PETL   C10  241   0.477  -0.664   1.193
   11PETL   HX1  242   0.405  -0.682   1.276
   11PETL   HX2  243   0.579  -0.708   1.199
   12PETL    O1  244   0.418  -0.607   1.069
   12PETL    C1  245   0.406  -0.713   0.987
   12PETL    O2  246   0.423  -0.832   1.022
   12PETL    C2  247   0.354  -0.680   0.850
   12PETL    C3  248   0.255  -0.770   0.647
   12PETL   H31  249   0.218  -0.855   0.592
   12PETL    C4  250   0.327  -0.792   0.764
   12PETL   H41  251   0.352  -0.894   0.787
   12PETL    C5  252   0.302  -0.555   0.816
   12PETL   H51  253   0.311  -0.475   0.888
   12PETL    C6  254   0.229  -0.532   0.698
   12PETL   H61  255   0.195  -0.435   0.662
   12PETL    C7  256   0.210  -0.640   0.609
   12PETL    C8  257   0.124  -0.625   0.486
   12PETL    O3  258   0.093  -0.748   0.427
   12PETL    O4  259   0.076  -0.519   0.450
   12PETL    C9  260  -0.004  -0.726   0.322
   12PETL   H91  261  -0.105  -0.719   0.369
   12PETL   H92  262   0.020  -0.636   0.262
   12PETL   C10  263  -0.007  -0.841   0.231
   12PETL   HX1  264   0.011  -0.812   0.125
   12PETL   HX2  265  -0.078  -0.926   0.246
   13PETL    O1  266   0.113  -0.843   0.315
   13PETL    C1  267   0.174  -0.962   0.284
   13PETL    O2  268   0.108  -1.059   0.254
   13PETL    C2  269   0.326  -0.959   0.289
   13PETL    C3  270   0.529  -0.822   0.337
   13PETL   H31  271   0.572  -0.726   0.359
   13PETL    C4  272   0.387  -0.840   0.327
   13PETL   H41  273   0.326  -0.754   0.352
   13PETL    C5  274   0.406  -1.068   0.259
   13PETL   H51  275   0.353  -1.158   0.233
   13PETL    C6  276   0.548  -1.053   0.261
   13PETL   H61  277   0.614  -1.139   0.255
   13PETL    C7  278   0.610  -0.931   0.300
   13PETL    C8  279   0.761  -0.924   0.299
   13PETL    O3  280   0.808  -0.801   0.315
   13PETL    O4  281   0.829  -1.022   0.273
   13PETL    C9  282   0.950  -0.788   0.340
   13PETL   H91  283   0.975  -0.812   0.445
   13PETL   H92  284   0.990  -0.869   0.277
   13PETL   C10  285   0.993  -0.649   0.322
   13PETL   HX1  286   1.076  -0.634   0.250
   13PETL   HX2  287   1.000  -0.600   0.422
   14PETL    O1  288   0.863  -0.658   0.269
   14PETL    C1  289   0.836  -0.538   0.203
   14PETL    O2  290   0.894  -0.433   0.220
   14PETL    C2  291   0.717  -0.547   0.114
   14PETL    C3  292   0.569  -0.664  -0.037
   14PETL   H31  293   0.540  -0.753  -0.090
   14PETL    C4  294   0.669  -0.669   0.058
   14PETL   H41  295   0.725  -0.757   0.084
   14PETL    C5  296   0.653  -0.422   0.075
   14PETL   H51  297   0.690  -0.331   0.121
   14PETL    C6  298   0.542  -0.425  -0.010
   14PETL   H61  299   0.488  -0.337  -0.039
   14PETL    C7  300   0.503  -0.547  -0.072
   14PETL    C8  301   0.403  -0.537  -0.187
   14PETL    O3  302   0.370  -0.407  -0.207
   14PETL    O4  303   0.375  -0.630  -0.257
   14PETL    C9  304   0.277  -0.394  -0.316
   14PETL   H91  305   0.310  -0.438  -0.412
   14PETL   H92  306   0.173  -0.431  -0.300
   14PETL   C10  307   0.269  -0.243  -0.333
   14PETL   HX1  308   0.209  -0.190  -0.255
   14PETL   HX2  309   0.245  -0.215  -0.438
   15PETL    O1  310   0.403  -0.299  -0.299
   15PETL    C1  311   0.494  -0.206  -0.326
   15PETL    O2  312   0.463  -0.096  -0.375
   15PETL    C2  313   0.639  -0.228  -0.284
   15PETL    C3  314   0.820  -0.385  -0.233
   15PETL   H31  315   0.857  -0.486  -0.232
   15PETL    C4  316   0.688  -0.359  -0.280
   15PETL   H41  317   0.622  -0.437  -0.317
   15PETL    C5  318   0.729  -0.120  -0.246
   15PETL   H51  319   0.691  -0.020  -0.255
   15PETL    C6  320   0.855  -0.146  -0.195
   15PETL   H61  321   0.917  -0.059  -0.180
   15PETL    C7  322   0.899  -0.279  -0.181
   15PETL    C8  323   1.038  -0.310  -0.120
   15PETL    O3  324   1.101  -0.197  -0.071
   15PETL    O4  325   1.084  -0.422  -0.115
   15PETL    C9  326   1.232  -0.228  -0.021
   15PETL   H91  327   1.225  -0.296   0.067
   15PETL   H92  328   1.284  -0.291  -0.095
   15PETL   C10  329   1.316  -0.105   0.007
   15PETL   HX1  330   1.347  -0.051  -0.084
   15PETL   HX2  331   1.389  -0.130   0.087
   16PETL    O1  332   1.172  -0.098   0.040
   16PETL    C1  333   1.155   0.010   0.113
   16PETL    O2  334   1.244   0.092   0.141
   16PETL    C2  335   1.013   0.023   0.168
   16PETL    C3  336   0.833   0.168   0.241
   16PETL   H31  337   0.804   0.268   0.271
   16PETL    C4  338   0.967   0.150   0.218
   16PETL   H41  339   1.029   0.230   0.253
   16PETL    C5  340   0.918  -0.081   0.168
   16PETL   H51  341   0.962  -0.171   0.125
   16PETL    C6  342   0.787  -0.062   0.193
   16PETL   H61  343   0.718  -0.146   0.191
   16PETL    C7  344   0.737   0.064   0.225
   16PETL    C8  345   0.589   0.087   0.234
   16PETL    O3  346   0.553   0.211   0.251
   16PETL    O4  347   0.512  -0.005   0.227
   16PETL    C9  348   0.417   0.235   0.287
   16PETL   H91  349   0.345   0.153   0.263
   16PETL   H92  350   0.413   0.283   0.388
   16PETL   C10  351   0.368   0.347   0.189
   16PETL   HX1  352   0.346   0.448   0.231
   16PETL   HX2  353   0.321   0.344   0.088
   17PETL    O1  354   0.510   0.325   0.162
   17PETL    C1  355   0.563   0.431   0.088
   17PETL    O2  356   0.520   0.540   0.085
   17PETL    C2  357   0.683   0.385   0.011
   17PETL    C3  358   0.900   0.437  -0.070
   17PETL   H31  359   0.983   0.507  -0.063
   17PETL    C4  360   0.791   0.478   0.000
   17PETL   H41  361   0.788   0.575   0.047
   17PETL    C5  362   0.680   0.263  -0.058
   17PETL   H51  363   0.590   0.202  -0.057
   17PETL    C6  364   0.796   0.234  -0.138
   17PETL   H61  365   0.801   0.140  -0.192
   17PETL    C7  366   0.907   0.324  -0.138
   17PETL    C8  367   1.039   0.291  -0.203
   17PETL    O3  368   1.061   0.164  -0.241
   17PETL    O4  369   1.128   0.375  -0.203
   17PETL    C9  370   1.205   0.155  -0.273
   17PETL   H91  371   1.235   0.231  -0.348
   17PETL   H92  372   1.276   0.148  -0.188
   17PETL   C10  373   1.214   0.017  -0.349
   17PETL   HX1  374   1.227  -0.064  -0.273
   17PETL   HX2  375   1.265   0.021  -0.447
   18PETL    O1  376   1.088   0.079  -0.357
   18PETL    C1  377   1.016  -0.013  -0.433
   18PETL    O2  378   1.037  -0.132  -0.434
   18PETL    C2  379   0.896   0.052  -0.506
   18PETL    C3  380   0.761   0.242  -0.576
   18PETL   H31  381   0.748   0.349  -0.567
   18PETL    C4  382   0.876   0.190  -0.509
   18PETL   H41  383   0.945   0.256  -0.457
   18PETL    C5  384   0.793  -0.031  -0.556
   18PETL   H51  385   0.813  -0.137  -0.548
   18PETL    C6  386   0.685   0.021  -0.619
   18PETL   H61  387   0.623  -0.057  -0.661
   18PETL    C7  388   0.666   0.160  -0.636
   18PETL    C8  389   0.545   0.210  -0.708
   18PETL    O3  390   0.565   0.322  -0.765
   18PETL    O4  391   0.443   0.144  -0.720
   18PETL    C9  392   0.449   0.354  -0.847
   18PETL   H91  393   0.440   0.286  -0.933
   18PETL   H92  394   0.364   0.355  -0.775
   18PETL   C10  395   0.481   0.495  -0.892
   18PETL   HX1  396   0.463   0.579  -0.821
   18PETL   HX2  397   0.469   0.523  -0.999
   19PETL    O1  398   0.607   0.431  -0.864
   19PETL    C1  399   0.704   0.513  -0.900
   19PETL    O2  400   0.687   0.631  -0.927
   19PETL    C2  401   0.841   0.452  -0.892
   19PETL    C3  402   1.086   0.480  -0.892
   19PETL   H31  403   1.176   0.540  -0.892
   19PETL    C4  404   0.951   0.539  -0.897
   19PETL   H41  405   0.940   0.646  -0.895
   19PETL    C5  406   0.865   0.313  -0.892
   19PETL   H51  407   0.781   0.246  -0.900
   19PETL    C6  408   0.992   0.262  -0.888
   19PETL   H61  409   0.998   0.154  -0.892
   19PETL    C7  410   1.106   0.342  -0.887
   19PETL    C8  411   1.250   0.283  -0.885
   19PETL    O3  412   1.343   0.368  -0.874
   19PETL    O4  413   1.262   0.159  -0.886
   19PETL    C9  414   1.472   0.313  -0.848
   19PETL   H91  415   1.476   0.273  -0.743
   19PETL   H92  416   1.497   0.225  -0.911
   19PETL   C10  417   1.569   0.431  -0.862
   19PETL   HX1  418   1.574   0.483  -0.960
   19PETL   HX2  419   1.657   0.429  -0.792
   20PETL    O1  420   1.441   0.459  -0.792
   20PETL    C1  421   1.425   0.586  -0.747
   20PETL    O2  422   1.512   0.666  -0.777
   20PETL    C2  423   1.307   0.608  -0.665
   20PETL    C3  424   1.149   0.753  -0.555
   20PETL   H31  425   1.121   0.854  -0.527
   20PETL    C4  426   1.259   0.737  -0.636
   20PETL   H41  427   1.302   0.821  -0.689
   20PETL    C5  428   1.234   0.496  -0.615
   20PETL   H51  429   1.272   0.395  -0.620
   20PETL    C6  430   1.119   0.519  -0.540
   20PETL   H61  431   1.053   0.438  -0.509
   20PETL    C7  432   1.078   0.648  -0.496
   20PETL    C8  433   0.964   0.660  -0.394
   20PETL    O3  434   0.928   0.789  -0.358
   20PETL    O4  435   0.909   0.559  -0.351
   20PETL    C9  436   0.805   0.790  -0.296
   20PETL   H91  437   0.721   0.742  -0.352
   20PETL   H92  438   0.812   0.731  -0.203
   20PETL   C10  439   0.776   0.930  -0.254
   20PETL   HX1  440   0.767   1.001  -0.338
   20PETL   HX2  441   0.857   0.969  -0.189
   20PETL   HZ1  442   0.590   0.914  -0.263
   20PETL    OZ  443   0.648   0.937  -0.191
  25.71140   9.88900   9.88900
