Generated by CHARMM-GUI FF-Converter
91
    1PETL   H11    1   4.654   3.238   3.254
    1PETL    O1    2   4.742   3.276   3.253
    1PETL    C1    3   4.852   3.178   3.253
    1PETL    O2    4   4.827   3.056   3.254
    1PETL    C2    5   5.002   3.240   3.252
    1PETL    C3    6   5.168   3.444   3.251
    1PETL   H31    7   5.185   3.554   3.251
    1PETL    C4    8   5.026   3.390   3.252
    1PETL   H41    9   4.940   3.460   3.251
    1PETL    C5   10   5.120   3.145   3.252
    1PETL   H51   11   5.103   3.034   3.253
    1PETL    C6   12   5.261   3.199   3.252
    1PETL   H61   13   5.347   3.128   3.252
    1PETL    C7   14   5.285   3.349   3.252
    1PETL    C8   15   5.437   3.402   3.252
    1PETL    O3   16   5.529   3.293   3.258
    1PETL    O4   17   5.472   3.521   3.247
    1PETL    C9   18   5.677   3.312   3.251
    1PETL   H91   19   5.704   3.373   3.157
    1PETL   H92   20   5.713   3.370   3.345
    1PETL   C10   21   5.755   3.165   3.244
    1PETL   HX1   22   5.716   3.104   3.155
    1PETL   HX2   23   5.737   3.106   3.342
    2PETL    O1   24   5.901   3.193   3.227
    2PETL    C1   25   6.004   3.096   3.245
    2PETL    O2   26   5.983   2.975   3.259
    2PETL    C2   27   6.148   3.169   3.246
    2PETL    C3   28   6.287   3.392   3.248
    2PETL   H31   29   6.290   3.504   3.248
    2PETL    C4   30   6.153   3.321   3.245
    2PETL   H41   31   6.059   3.380   3.244
    2PETL    C5   32   6.276   3.089   3.249
    2PETL   H51   33   6.273   2.977   3.249
    2PETL    C6   34   6.409   3.160   3.253
    2PETL   H61   35   6.504   3.101   3.254
    2PETL    C7   36   6.414   3.312   3.253
    2PETL    C8   37   6.557   3.386   3.260
    2PETL    O3   38   6.657   3.298   3.311
    2PETL    O4   39   6.581   3.502   3.222
    2PETL    C9   40   6.798   3.303   3.261
    2PETL   H91   41   6.803   3.363   3.163
    2PETL   H92   42   6.866   3.354   3.340
    2PETL   C10   43   6.853   3.148   3.231
    2PETL   HX1   44   6.785   3.097   3.154
    2PETL   HX2   45   6.851   3.088   3.330
    3PETL    O1   46   6.994   3.154   3.179
    3PETL    C1   47   7.096   3.072   3.237
    3PETL    O2   48   7.077   2.957   3.279
    3PETL    C2   49   7.235   3.153   3.245
    3PETL    C3   50   7.365   3.382   3.250
    3PETL   H31   51   7.364   3.493   3.250
    3PETL    C4   52   7.234   3.305   3.246
    3PETL   H41   53   7.137   3.360   3.243
    3PETL    C5   54   7.366   3.078   3.252
    3PETL   H51   55   7.367   2.966   3.252
    3PETL    C6   56   7.496   3.154   3.255
    3PETL   H61   57   7.592   3.099   3.257
    3PETL    C7   58   7.495   3.306   3.253
    3PETL    C8   59   7.638   3.382   3.254
    3PETL    O3   60   7.742   3.286   3.265
    3PETL    O4   61   7.656   3.504   3.245
    3PETL    C9   62   7.887   3.314   3.252
    3PETL   H91   63   7.908   3.375   3.155
    3PETL   H92   64   7.924   3.374   3.343
    3PETL   C10   65   7.969   3.169   3.244
    3PETL   HX1   66   7.931   3.108   3.153
    3PETL   HX2   67   7.949   3.109   3.340
    4PETL    O1   68   8.114   3.197   3.229
    4PETL    C1   69   8.217   3.100   3.247
    4PETL    O2   70   8.196   2.978   3.258
    4PETL    C2   71   8.361   3.173   3.250
    4PETL    C3   72   8.496   3.398   3.252
    4PETL   H31   73   8.498   3.509   3.252
    4PETL    C4   74   8.364   3.325   3.251
    4PETL   H41   75   8.269   3.383   3.250
    4PETL    C5   76   8.490   3.094   3.251
    4PETL   H51   77   8.487   2.983   3.251
    4PETL    C6   78   8.622   3.168   3.252
    4PETL   H61   79   8.717   3.109   3.253
    4PETL    C7   80   8.625   3.319   3.252
    4PETL    C8   81   8.767   3.397   3.252
    4PETL    O3   82   8.877   3.306   3.252
    4PETL    O4   83   8.780   3.521   3.252
    4PETL    C9   84   9.019   3.353   3.252
    4PETL   H91   85   9.039   3.417   3.158
    4PETL   H92   86   9.039   3.416   3.347
    4PETL   C10   87   9.123   3.220   3.252
    4PETL   HX1   88   9.095   3.156   3.158
    4PETL   HX2   89   9.094   3.156   3.346
    4PETL   HZ1   90   9.315   3.172   3.253
    4PETL    OZ   91   9.268   3.256   3.253
  14.00000   6.50000   6.50000   0.00000   0.00000   0.00000   0.00000   0.00000   0.00000
