Generated by CHARMM-GUI FF-Converter
223
    1PETL   H11    1   3.427   3.707   3.514
    1PETL    O1    2   3.518   3.738   3.512
    1PETL    C1    3   3.620   3.631   3.515
    1PETL    O2    4   3.585   3.511   3.521
    1PETL    C2    5   3.774   3.680   3.511
    1PETL    C3    6   3.956   3.870   3.502
    1PETL   H31    7   3.982   3.978   3.497
    1PETL    C4    8   3.810   3.827   3.505
    1PETL   H41    9   3.730   3.905   3.502
    1PETL    C5   10   3.883   3.576   3.515
    1PETL   H51   11   3.858   3.467   3.520
    1PETL    C6   12   4.028   3.618   3.512
    1PETL   H61   13   4.109   3.541   3.515
    1PETL    C7   14   4.065   3.765   3.506
    1PETL    C8   15   4.221   3.806   3.503
    1PETL    O3   16   4.304   3.690   3.513
    1PETL    O4   17   4.266   3.921   3.493
    1PETL    C9   18   4.453   3.697   3.505
    1PETL   H91   19   4.484   3.753   3.408
    1PETL   H92   20   4.495   3.756   3.596
    1PETL   C10   21   4.520   3.544   3.503
    1PETL   HX1   22   4.475   3.483   3.416
    1PETL   HX2   23   4.498   3.491   3.603
    2PETL    O1   24   4.667   3.560   3.484
    2PETL    C1   25   4.762   3.456   3.506
    2PETL    O2   26   4.732   3.337   3.525
    2PETL    C2   27   4.912   3.517   3.504
    2PETL    C3   28   5.068   3.727   3.496
    2PETL   H31   29   5.081   3.838   3.492
    2PETL    C4   30   4.930   3.667   3.497
    2PETL   H41   31   4.840   3.734   3.492
    2PETL    C5   32   5.033   3.426   3.510
    2PETL   H51   33   5.020   3.315   3.514
    2PETL    C6   34   5.171   3.487   3.510
    2PETL   H61   35   5.261   3.420   3.514
    2PETL    C7   36   5.189   3.637   3.505
    2PETL    C8   37   5.338   3.699   3.508
    2PETL    O3   38   5.431   3.605   3.562
    2PETL    O4   39   5.371   3.811   3.465
    2PETL    C9   40   5.571   3.597   3.511
    2PETL   H91   41   5.580   3.653   3.411
    2PETL   H92   42   5.644   3.645   3.587
    2PETL   C10   43   5.614   3.437   3.487
    2PETL   HX1   44   5.541   3.389   3.412
    2PETL   HX2   45   5.607   3.381   3.588
    3PETL    O1   46   5.754   3.430   3.433
    3PETL    C1   47   5.851   3.343   3.493
    3PETL    O2   48   5.823   3.232   3.541
    3PETL    C2   49   5.996   3.412   3.496
    3PETL    C3   50   6.142   3.630   3.493
    3PETL   H31   51   6.150   3.742   3.488
    3PETL    C4   52   6.007   3.563   3.490
    3PETL   H41   53   5.914   3.626   3.483
    3PETL    C5   54   6.121   3.328   3.507
    3PETL   H51   55   6.114   3.217   3.512
    3PETL    C6   56   6.257   3.395   3.511
    3PETL   H61   57   6.349   3.333   3.517
    3PETL    C7   58   6.267   3.546   3.504
    3PETL    C8   59   6.413   3.615   3.507
    3PETL    O3   60   6.510   3.526   3.563
    3PETL    O4   61   6.441   3.727   3.461
    3PETL    C9   62   6.650   3.519   3.508
    3PETL   H91   63   6.655   3.576   3.408
    3PETL   H92   64   6.723   3.567   3.583
    3PETL   C10   65   6.693   3.360   3.483
    3PETL   HX1   66   6.620   3.311   3.408
    3PETL   HX2   67   6.688   3.303   3.584
    4PETL    O1   68   6.833   3.354   3.428
    4PETL    C1   69   6.932   3.270   3.489
    4PETL    O2   70   6.907   3.158   3.537
    4PETL    C2   71   7.076   3.343   3.493
    4PETL    C3   72   7.215   3.566   3.490
    4PETL   H31   73   7.219   3.677   3.486
    4PETL    C4   74   7.081   3.495   3.486
    4PETL   H41   75   6.987   3.554   3.480
    4PETL    C5   76   7.203   3.263   3.504
    4PETL   H51   77   7.198   3.151   3.509
    4PETL    C6   78   7.336   3.334   3.508
    4PETL   H61   79   7.430   3.274   3.514
    4PETL    C7   80   7.342   3.485   3.501
    4PETL    C8   81   7.486   3.558   3.504
    4PETL    O3   82   7.586   3.471   3.561
    4PETL    O4   83   7.511   3.671   3.459
    4PETL    C9   84   7.726   3.469   3.506
    4PETL   H91   85   7.730   3.526   3.406
    4PETL   H92   86   7.798   3.519   3.581
    4PETL   C10   87   7.774   3.311   3.481
    4PETL   HX1   88   7.702   3.260   3.406
    4PETL   HX2   89   7.770   3.254   3.581
    5PETL    O1   90   7.914   3.309   3.426
    5PETL    C1   91   8.015   3.228   3.487
    5PETL    O2   92   7.993   3.115   3.535
    5PETL    C2   93   8.156   3.305   3.491
    5PETL    C3   94   8.290   3.531   3.489
    5PETL   H31   95   8.291   3.642   3.485
    5PETL    C4   96   8.158   3.456   3.485
    5PETL   H41   97   8.062   3.513   3.478
    5PETL    C5   98   8.286   3.228   3.502
    5PETL   H51   99   8.284   3.116   3.507
    5PETL    C6  100   8.417   3.302   3.506
    5PETL   H61  101   8.513   3.245   3.513
    5PETL    C7  102   8.419   3.454   3.500
    5PETL    C8  103   8.561   3.530   3.503
    5PETL    O3  104   8.663   3.447   3.560
    5PETL    O4  105   8.583   3.644   3.459
    5PETL    C9  106   8.803   3.448   3.506
    5PETL   H91  107   8.806   3.505   3.405
    5PETL   H92  108   8.873   3.500   3.580
    5PETL   C10  109   8.856   3.292   3.479
    5PETL   HX1  110   8.785   3.239   3.405
    5PETL   HX2  111   8.853   3.234   3.580
    6PETL    O1  112   8.995   3.294   3.425
    6PETL    C1  113   9.099   3.215   3.486
    6PETL    O2  114   9.079   3.102   3.533
    6PETL    C2  115   9.238   3.296   3.490
    6PETL    C3  116   9.365   3.526   3.489
    6PETL   H31  117   9.363   3.637   3.485
    6PETL    C4  118   9.236   3.448   3.484
    6PETL   H41  119   9.138   3.502   3.478
    6PETL    C5  120   9.369   3.223   3.502
    6PETL   H51  121   9.371   3.111   3.506
    6PETL    C6  122   9.499   3.301   3.506
    6PETL   H61  123   9.596   3.247   3.512
    6PETL    C7  124   9.496   3.452   3.500
    6PETL    C8  125   9.636   3.533   3.504
    6PETL    O3  126   9.740   3.452   3.560
    6PETL    O4  127   9.655   3.647   3.459
    6PETL    C9  128   9.880   3.457   3.506
    6PETL   H91  129   9.881   3.515   3.406
    6PETL   H92  130   9.949   3.511   3.581
    6PETL   C10  131   9.937   3.302   3.480
    6PETL   HX1  132   9.868   3.248   3.405
    6PETL   HX2  133   9.936   3.245   3.580
    7PETL    O1  134  10.077   3.308   3.425
    7PETL    C1  135  10.182   3.232   3.486
    7PETL    O2  136  10.166   3.119   3.534
    7PETL    C2  137  10.319   3.317   3.491
    7PETL    C3  138  10.440   3.550   3.490
    7PETL   H31  139  10.435   3.662   3.486
    7PETL    C4  140  10.313   3.469   3.485
    7PETL   H41  141  10.214   3.520   3.479
    7PETL    C5  142  10.453   3.248   3.502
    7PETL   H51  143  10.458   3.136   3.506
    7PETL    C6  144  10.580   3.329   3.507
    7PETL   H61  145  10.679   3.278   3.513
    7PETL    C7  146  10.573   3.481   3.501
    7PETL    C8  147  10.711   3.565   3.505
    7PETL    O3  148  10.817   3.487   3.562
    7PETL    O4  149  10.727   3.680   3.461
    7PETL    C9  150  10.957   3.496   3.508
    7PETL   H91  151  10.956   3.554   3.408
    7PETL   H92  152  11.024   3.551   3.583
    7PETL   C10  153  11.018   3.343   3.481
    7PETL   HX1  154  10.950   3.287   3.406
    7PETL   HX2  155  11.018   3.285   3.581
    8PETL    O1  156  11.157   3.352   3.427
    8PETL    C1  157  11.265   3.279   3.488
    8PETL    O2  158  11.251   3.165   3.535
    8PETL    C2  159  11.399   3.368   3.493
    8PETL    C3  160  11.513   3.605   3.493
    8PETL   H31  161  11.505   3.716   3.489
    8PETL    C4  162  11.388   3.519   3.488
    8PETL   H41  163  11.288   3.568   3.481
    8PETL    C5  164  11.534   3.302   3.504
    8PETL   H51  165  11.543   3.191   3.508
    8PETL    C6  166  11.659   3.388   3.509
    8PETL   H61  167  11.759   3.339   3.516
    8PETL    C7  168  11.648   3.539   3.504
    8PETL    C8  169  11.783   3.627   3.508
    8PETL    O3  170  11.891   3.552   3.565
    8PETL    O4  171  11.796   3.742   3.464
    8PETL    C9  172  12.031   3.565   3.511
    8PETL   H91  173  12.029   3.623   3.411
    8PETL   H92  174  12.097   3.622   3.586
    8PETL   C10  175  12.096   3.413   3.484
    8PETL   HX1  176  12.030   3.356   3.409
    8PETL   HX2  177  12.097   3.355   3.585
    9PETL    O1  178  12.235   3.426   3.431
    9PETL    C1  179  12.343   3.356   3.493
    9PETL    O2  180  12.333   3.242   3.539
    9PETL    C2  181  12.475   3.449   3.499
    9PETL    C3  182  12.585   3.687   3.498
    9PETL   H31  183  12.575   3.798   3.495
    9PETL    C4  184  12.461   3.600   3.495
    9PETL   H41  185  12.360   3.647   3.491
    9PETL    C5  186  12.611   3.385   3.509
    9PETL   H51  187  12.622   3.274   3.512
    9PETL    C6  188  12.734   3.472   3.511
    9PETL   H61  189  12.835   3.425   3.516
    9PETL    C7  190  12.721   3.623   3.505
    9PETL    C8  191  12.857   3.711   3.505
    9PETL    O3  192  12.969   3.624   3.519
    9PETL    O4  193  12.865   3.834   3.492
    9PETL    C9  194  13.111   3.665   3.504
    9PETL   H91  195  13.126   3.724   3.407
    9PETL   H92  196  13.143   3.730   3.594
    9PETL   C10  197  13.206   3.527   3.501
    9PETL   HX1  198  13.174   3.461   3.411
    9PETL   HX2  199  13.191   3.468   3.599
   10PETL    O1  200  13.348   3.568   3.485
   10PETL    C1  201  13.458   3.480   3.507
   10PETL    O2  202  13.448   3.357   3.522
   10PETL    C2  203  13.596   3.565   3.509
   10PETL    C3  204  13.713   3.800   3.504
   10PETL   H31  205  13.705   3.911   3.502
   10PETL    C4  206  13.587   3.716   3.505
   10PETL   H41  207  13.487   3.766   3.503
   10PETL    C5  208  13.731   3.497   3.513
   10PETL   H51  209  13.738   3.385   3.515
   10PETL    C6  210  13.857   3.581   3.512
   10PETL   H61  211  13.956   3.531   3.514
   10PETL    C7  212  13.848   3.732   3.508
   10PETL    C8  213  13.982   3.822   3.506
   10PETL    O3  214  14.099   3.740   3.509
   10PETL    O4  215  13.985   3.945   3.503
   10PETL    C9  216  14.237   3.799   3.508
   10PETL   H91  217  14.252   3.862   3.413
   10PETL   H92  218  14.251   3.866   3.601
   10PETL   C10  219  14.352   3.675   3.513
   10PETL   HX1  220  14.330   3.607   3.420
   10PETL   HX2  221  14.328   3.612   3.608
   10PETL   HZ1  222  14.547   3.644   3.515
   10PETL    OZ  223  14.493   3.723   3.513
  18.00000   7.00000   7.00000   0.00000   0.00000   0.00000   0.00000   0.00000   0.00000
