;;
;; Generated by CHARMM-GUI FF-Converter
;;
;; Correspondance:
;; jul316@lehigh.edu or wonpil@lehigh.edu
;;
;; GROMACS topology file for P1
;;


[ moleculetype ]
; name	nrexcl
P1	     3

[ atoms ]
; nr	type	resnr	residu	atom	cgnr	charge	mass
     1       HGP1      1     PETL    H11      1     0.420000     1.0080   ; qtot  0.420
     2      OG311      1     PETL     O1      2    -0.590000    15.9994   ; qtot -0.170
     3      CG2O2      1     PETL     C1      3     0.710000    12.0110   ; qtot  0.540
     4      OG2D1      1     PETL     O2      4    -0.630000    15.9994   ; qtot -0.090
     5     CG2R61      1     PETL     C2      5     0.090000    12.0110   ; qtot  0.000
     6     CG2R61      1     PETL     C3      6    -0.115000    12.0110   ; qtot -0.115
     7      HGR61      1     PETL    H31      7     0.115000     1.0080   ; qtot  0.000
     8     CG2R61      1     PETL     C4      8    -0.115000    12.0110   ; qtot -0.115
     9      HGR61      1     PETL    H41      9     0.115000     1.0080   ; qtot  0.000
    10     CG2R61      1     PETL     C5     10    -0.115000    12.0110   ; qtot -0.115
    11      HGR61      1     PETL    H51     11     0.115000     1.0080   ; qtot  0.000
    12     CG2R61      1     PETL     C6     12    -0.115000    12.0110   ; qtot -0.115
    13      HGR61      1     PETL    H61     13     0.115000     1.0080   ; qtot  0.000
    14     CG2R61      1     PETL     C7     14     0.090000    12.0110   ; qtot  0.090
    15      CG2O2      1     PETL     C8     15     0.770000    12.0110   ; qtot  0.860
    16      OG302      1     PETL     O3     16    -0.490000    15.9994   ; qtot  0.370
    17      OG2D1      1     PETL     O4     17    -0.630000    15.9994   ; qtot -0.260
    18      CG321      1     PETL     C9     18     0.080000    12.0110   ; qtot -0.180
    19       HGA2      1     PETL    H91     19     0.090000     1.0080   ; qtot -0.090
    20       HGA2      1     PETL    H92     20     0.090000     1.0080   ; qtot  0.000
    21      CG321      1     PETL    C10     21     0.080000    12.0110   ; qtot  0.080
    22       HGA2      1     PETL    HX1     22     0.090000     1.0080   ; qtot  0.170
    23       HGA2      1     PETL    HX2     23     0.090000     1.0080   ; qtot  0.260
    24      OG302      2     PETL     O1     24    -0.490000    15.9994   ; qtot -0.230
    25      CG2O2      2     PETL     C1     25     0.770000    12.0110   ; qtot  0.540
    26      OG2D1      2     PETL     O2     26    -0.630000    15.9994   ; qtot -0.090
    27     CG2R61      2     PETL     C2     27     0.090000    12.0110   ; qtot  0.000
    28     CG2R61      2     PETL     C3     28    -0.115000    12.0110   ; qtot -0.115
    29      HGR61      2     PETL    H31     29     0.115000     1.0080   ; qtot  0.000
    30     CG2R61      2     PETL     C4     30    -0.115000    12.0110   ; qtot -0.115
    31      HGR61      2     PETL    H41     31     0.115000     1.0080   ; qtot  0.000
    32     CG2R61      2     PETL     C5     32    -0.115000    12.0110   ; qtot -0.115
    33      HGR61      2     PETL    H51     33     0.115000     1.0080   ; qtot  0.000
    34     CG2R61      2     PETL     C6     34    -0.115000    12.0110   ; qtot -0.115
    35      HGR61      2     PETL    H61     35     0.115000     1.0080   ; qtot  0.000
    36     CG2R61      2     PETL     C7     36     0.090000    12.0110   ; qtot  0.090
    37      CG2O2      2     PETL     C8     37     0.770000    12.0110   ; qtot  0.860
    38      OG302      2     PETL     O3     38    -0.490000    15.9994   ; qtot  0.370
    39      OG2D1      2     PETL     O4     39    -0.630000    15.9994   ; qtot -0.260
    40      CG321      2     PETL     C9     40     0.080000    12.0110   ; qtot -0.180
    41       HGA2      2     PETL    H91     41     0.090000     1.0080   ; qtot -0.090
    42       HGA2      2     PETL    H92     42     0.090000     1.0080   ; qtot  0.000
    43      CG321      2     PETL    C10     43     0.080000    12.0110   ; qtot  0.080
    44       HGA2      2     PETL    HX1     44     0.090000     1.0080   ; qtot  0.170
    45       HGA2      2     PETL    HX2     45     0.090000     1.0080   ; qtot  0.260
    46      OG302      3     PETL     O1     46    -0.490000    15.9994   ; qtot -0.230
    47      CG2O2      3     PETL     C1     47     0.770000    12.0110   ; qtot  0.540
    48      OG2D1      3     PETL     O2     48    -0.630000    15.9994   ; qtot -0.090
    49     CG2R61      3     PETL     C2     49     0.090000    12.0110   ; qtot  0.000
    50     CG2R61      3     PETL     C3     50    -0.115000    12.0110   ; qtot -0.115
    51      HGR61      3     PETL    H31     51     0.115000     1.0080   ; qtot  0.000
    52     CG2R61      3     PETL     C4     52    -0.115000    12.0110   ; qtot -0.115
    53      HGR61      3     PETL    H41     53     0.115000     1.0080   ; qtot  0.000
    54     CG2R61      3     PETL     C5     54    -0.115000    12.0110   ; qtot -0.115
    55      HGR61      3     PETL    H51     55     0.115000     1.0080   ; qtot  0.000
    56     CG2R61      3     PETL     C6     56    -0.115000    12.0110   ; qtot -0.115
    57      HGR61      3     PETL    H61     57     0.115000     1.0080   ; qtot  0.000
    58     CG2R61      3     PETL     C7     58     0.090000    12.0110   ; qtot  0.090
    59      CG2O2      3     PETL     C8     59     0.770000    12.0110   ; qtot  0.860
    60      OG302      3     PETL     O3     60    -0.490000    15.9994   ; qtot  0.370
    61      OG2D1      3     PETL     O4     61    -0.630000    15.9994   ; qtot -0.260
    62      CG321      3     PETL     C9     62     0.080000    12.0110   ; qtot -0.180
    63       HGA2      3     PETL    H91     63     0.090000     1.0080   ; qtot -0.090
    64       HGA2      3     PETL    H92     64     0.090000     1.0080   ; qtot  0.000
    65      CG321      3     PETL    C10     65     0.080000    12.0110   ; qtot  0.080
    66       HGA2      3     PETL    HX1     66     0.090000     1.0080   ; qtot  0.170
    67       HGA2      3     PETL    HX2     67     0.090000     1.0080   ; qtot  0.260
    68      OG302      4     PETL     O1     68    -0.490000    15.9994   ; qtot -0.230
    69      CG2O2      4     PETL     C1     69     0.770000    12.0110   ; qtot  0.540
    70      OG2D1      4     PETL     O2     70    -0.630000    15.9994   ; qtot -0.090
    71     CG2R61      4     PETL     C2     71     0.090000    12.0110   ; qtot  0.000
    72     CG2R61      4     PETL     C3     72    -0.115000    12.0110   ; qtot -0.115
    73      HGR61      4     PETL    H31     73     0.115000     1.0080   ; qtot  0.000
    74     CG2R61      4     PETL     C4     74    -0.115000    12.0110   ; qtot -0.115
    75      HGR61      4     PETL    H41     75     0.115000     1.0080   ; qtot  0.000
    76     CG2R61      4     PETL     C5     76    -0.115000    12.0110   ; qtot -0.115
    77      HGR61      4     PETL    H51     77     0.115000     1.0080   ; qtot  0.000
    78     CG2R61      4     PETL     C6     78    -0.115000    12.0110   ; qtot -0.115
    79      HGR61      4     PETL    H61     79     0.115000     1.0080   ; qtot  0.000
    80     CG2R61      4     PETL     C7     80     0.090000    12.0110   ; qtot  0.090
    81      CG2O2      4     PETL     C8     81     0.770000    12.0110   ; qtot  0.860
    82      OG302      4     PETL     O3     82    -0.490000    15.9994   ; qtot  0.370
    83      OG2D1      4     PETL     O4     83    -0.630000    15.9994   ; qtot -0.260
    84      CG321      4     PETL     C9     84     0.080000    12.0110   ; qtot -0.180
    85       HGA2      4     PETL    H91     85     0.090000     1.0080   ; qtot -0.090
    86       HGA2      4     PETL    H92     86     0.090000     1.0080   ; qtot  0.000
    87      CG321      4     PETL    C10     87     0.080000    12.0110   ; qtot  0.080
    88       HGA2      4     PETL    HX1     88     0.090000     1.0080   ; qtot  0.170
    89       HGA2      4     PETL    HX2     89     0.090000     1.0080   ; qtot  0.260
    90      OG302      5     PETL     O1     90    -0.490000    15.9994   ; qtot -0.230
    91      CG2O2      5     PETL     C1     91     0.770000    12.0110   ; qtot  0.540
    92      OG2D1      5     PETL     O2     92    -0.630000    15.9994   ; qtot -0.090
    93     CG2R61      5     PETL     C2     93     0.090000    12.0110   ; qtot  0.000
    94     CG2R61      5     PETL     C3     94    -0.115000    12.0110   ; qtot -0.115
    95      HGR61      5     PETL    H31     95     0.115000     1.0080   ; qtot  0.000
    96     CG2R61      5     PETL     C4     96    -0.115000    12.0110   ; qtot -0.115
    97      HGR61      5     PETL    H41     97     0.115000     1.0080   ; qtot  0.000
    98     CG2R61      5     PETL     C5     98    -0.115000    12.0110   ; qtot -0.115
    99      HGR61      5     PETL    H51     99     0.115000     1.0080   ; qtot  0.000
   100     CG2R61      5     PETL     C6    100    -0.115000    12.0110   ; qtot -0.115
   101      HGR61      5     PETL    H61    101     0.115000     1.0080   ; qtot  0.000
   102     CG2R61      5     PETL     C7    102     0.090000    12.0110   ; qtot  0.090
   103      CG2O2      5     PETL     C8    103     0.770000    12.0110   ; qtot  0.860
   104      OG302      5     PETL     O3    104    -0.490000    15.9994   ; qtot  0.370
   105      OG2D1      5     PETL     O4    105    -0.630000    15.9994   ; qtot -0.260
   106      CG321      5     PETL     C9    106     0.080000    12.0110   ; qtot -0.180
   107       HGA2      5     PETL    H91    107     0.090000     1.0080   ; qtot -0.090
   108       HGA2      5     PETL    H92    108     0.090000     1.0080   ; qtot  0.000
   109      CG321      5     PETL    C10    109     0.080000    12.0110   ; qtot  0.080
   110       HGA2      5     PETL    HX1    110     0.090000     1.0080   ; qtot  0.170
   111       HGA2      5     PETL    HX2    111     0.090000     1.0080   ; qtot  0.260
   112      OG302      6     PETL     O1    112    -0.490000    15.9994   ; qtot -0.230
   113      CG2O2      6     PETL     C1    113     0.770000    12.0110   ; qtot  0.540
   114      OG2D1      6     PETL     O2    114    -0.630000    15.9994   ; qtot -0.090
   115     CG2R61      6     PETL     C2    115     0.090000    12.0110   ; qtot  0.000
   116     CG2R61      6     PETL     C3    116    -0.115000    12.0110   ; qtot -0.115
   117      HGR61      6     PETL    H31    117     0.115000     1.0080   ; qtot  0.000
   118     CG2R61      6     PETL     C4    118    -0.115000    12.0110   ; qtot -0.115
   119      HGR61      6     PETL    H41    119     0.115000     1.0080   ; qtot  0.000
   120     CG2R61      6     PETL     C5    120    -0.115000    12.0110   ; qtot -0.115
   121      HGR61      6     PETL    H51    121     0.115000     1.0080   ; qtot  0.000
   122     CG2R61      6     PETL     C6    122    -0.115000    12.0110   ; qtot -0.115
   123      HGR61      6     PETL    H61    123     0.115000     1.0080   ; qtot  0.000
   124     CG2R61      6     PETL     C7    124     0.090000    12.0110   ; qtot  0.090
   125      CG2O2      6     PETL     C8    125     0.770000    12.0110   ; qtot  0.860
   126      OG302      6     PETL     O3    126    -0.490000    15.9994   ; qtot  0.370
   127      OG2D1      6     PETL     O4    127    -0.630000    15.9994   ; qtot -0.260
   128      CG321      6     PETL     C9    128     0.080000    12.0110   ; qtot -0.180
   129       HGA2      6     PETL    H91    129     0.090000     1.0080   ; qtot -0.090
   130       HGA2      6     PETL    H92    130     0.090000     1.0080   ; qtot  0.000
   131      CG321      6     PETL    C10    131     0.080000    12.0110   ; qtot  0.080
   132       HGA2      6     PETL    HX1    132     0.090000     1.0080   ; qtot  0.170
   133       HGA2      6     PETL    HX2    133     0.090000     1.0080   ; qtot  0.260
   134      OG302      7     PETL     O1    134    -0.490000    15.9994   ; qtot -0.230
   135      CG2O2      7     PETL     C1    135     0.770000    12.0110   ; qtot  0.540
   136      OG2D1      7     PETL     O2    136    -0.630000    15.9994   ; qtot -0.090
   137     CG2R61      7     PETL     C2    137     0.090000    12.0110   ; qtot  0.000
   138     CG2R61      7     PETL     C3    138    -0.115000    12.0110   ; qtot -0.115
   139      HGR61      7     PETL    H31    139     0.115000     1.0080   ; qtot  0.000
   140     CG2R61      7     PETL     C4    140    -0.115000    12.0110   ; qtot -0.115
   141      HGR61      7     PETL    H41    141     0.115000     1.0080   ; qtot  0.000
   142     CG2R61      7     PETL     C5    142    -0.115000    12.0110   ; qtot -0.115
   143      HGR61      7     PETL    H51    143     0.115000     1.0080   ; qtot  0.000
   144     CG2R61      7     PETL     C6    144    -0.115000    12.0110   ; qtot -0.115
   145      HGR61      7     PETL    H61    145     0.115000     1.0080   ; qtot  0.000
   146     CG2R61      7     PETL     C7    146     0.090000    12.0110   ; qtot  0.090
   147      CG2O2      7     PETL     C8    147     0.770000    12.0110   ; qtot  0.860
   148      OG302      7     PETL     O3    148    -0.490000    15.9994   ; qtot  0.370
   149      OG2D1      7     PETL     O4    149    -0.630000    15.9994   ; qtot -0.260
   150      CG321      7     PETL     C9    150     0.080000    12.0110   ; qtot -0.180
   151       HGA2      7     PETL    H91    151     0.090000     1.0080   ; qtot -0.090
   152       HGA2      7     PETL    H92    152     0.090000     1.0080   ; qtot  0.000
   153      CG321      7     PETL    C10    153     0.080000    12.0110   ; qtot  0.080
   154       HGA2      7     PETL    HX1    154     0.090000     1.0080   ; qtot  0.170
   155       HGA2      7     PETL    HX2    155     0.090000     1.0080   ; qtot  0.260
   156      OG302      8     PETL     O1    156    -0.490000    15.9994   ; qtot -0.230
   157      CG2O2      8     PETL     C1    157     0.770000    12.0110   ; qtot  0.540
   158      OG2D1      8     PETL     O2    158    -0.630000    15.9994   ; qtot -0.090
   159     CG2R61      8     PETL     C2    159     0.090000    12.0110   ; qtot  0.000
   160     CG2R61      8     PETL     C3    160    -0.115000    12.0110   ; qtot -0.115
   161      HGR61      8     PETL    H31    161     0.115000     1.0080   ; qtot  0.000
   162     CG2R61      8     PETL     C4    162    -0.115000    12.0110   ; qtot -0.115
   163      HGR61      8     PETL    H41    163     0.115000     1.0080   ; qtot  0.000
   164     CG2R61      8     PETL     C5    164    -0.115000    12.0110   ; qtot -0.115
   165      HGR61      8     PETL    H51    165     0.115000     1.0080   ; qtot  0.000
   166     CG2R61      8     PETL     C6    166    -0.115000    12.0110   ; qtot -0.115
   167      HGR61      8     PETL    H61    167     0.115000     1.0080   ; qtot  0.000
   168     CG2R61      8     PETL     C7    168     0.090000    12.0110   ; qtot  0.090
   169      CG2O2      8     PETL     C8    169     0.770000    12.0110   ; qtot  0.860
   170      OG302      8     PETL     O3    170    -0.490000    15.9994   ; qtot  0.370
   171      OG2D1      8     PETL     O4    171    -0.630000    15.9994   ; qtot -0.260
   172      CG321      8     PETL     C9    172     0.080000    12.0110   ; qtot -0.180
   173       HGA2      8     PETL    H91    173     0.090000     1.0080   ; qtot -0.090
   174       HGA2      8     PETL    H92    174     0.090000     1.0080   ; qtot  0.000
   175      CG321      8     PETL    C10    175     0.080000    12.0110   ; qtot  0.080
   176       HGA2      8     PETL    HX1    176     0.090000     1.0080   ; qtot  0.170
   177       HGA2      8     PETL    HX2    177     0.090000     1.0080   ; qtot  0.260
   178      OG302      9     PETL     O1    178    -0.490000    15.9994   ; qtot -0.230
   179      CG2O2      9     PETL     C1    179     0.770000    12.0110   ; qtot  0.540
   180      OG2D1      9     PETL     O2    180    -0.630000    15.9994   ; qtot -0.090
   181     CG2R61      9     PETL     C2    181     0.090000    12.0110   ; qtot  0.000
   182     CG2R61      9     PETL     C3    182    -0.115000    12.0110   ; qtot -0.115
   183      HGR61      9     PETL    H31    183     0.115000     1.0080   ; qtot  0.000
   184     CG2R61      9     PETL     C4    184    -0.115000    12.0110   ; qtot -0.115
   185      HGR61      9     PETL    H41    185     0.115000     1.0080   ; qtot  0.000
   186     CG2R61      9     PETL     C5    186    -0.115000    12.0110   ; qtot -0.115
   187      HGR61      9     PETL    H51    187     0.115000     1.0080   ; qtot  0.000
   188     CG2R61      9     PETL     C6    188    -0.115000    12.0110   ; qtot -0.115
   189      HGR61      9     PETL    H61    189     0.115000     1.0080   ; qtot  0.000
   190     CG2R61      9     PETL     C7    190     0.090000    12.0110   ; qtot  0.090
   191      CG2O2      9     PETL     C8    191     0.770000    12.0110   ; qtot  0.860
   192      OG302      9     PETL     O3    192    -0.490000    15.9994   ; qtot  0.370
   193      OG2D1      9     PETL     O4    193    -0.630000    15.9994   ; qtot -0.260
   194      CG321      9     PETL     C9    194     0.080000    12.0110   ; qtot -0.180
   195       HGA2      9     PETL    H91    195     0.090000     1.0080   ; qtot -0.090
   196       HGA2      9     PETL    H92    196     0.090000     1.0080   ; qtot  0.000
   197      CG321      9     PETL    C10    197     0.080000    12.0110   ; qtot  0.080
   198       HGA2      9     PETL    HX1    198     0.090000     1.0080   ; qtot  0.170
   199       HGA2      9     PETL    HX2    199     0.090000     1.0080   ; qtot  0.260
   200      OG302     10     PETL     O1    200    -0.490000    15.9994   ; qtot -0.230
   201      CG2O2     10     PETL     C1    201     0.770000    12.0110   ; qtot  0.540
   202      OG2D1     10     PETL     O2    202    -0.630000    15.9994   ; qtot -0.090
   203     CG2R61     10     PETL     C2    203     0.090000    12.0110   ; qtot  0.000
   204     CG2R61     10     PETL     C3    204    -0.115000    12.0110   ; qtot -0.115
   205      HGR61     10     PETL    H31    205     0.115000     1.0080   ; qtot  0.000
   206     CG2R61     10     PETL     C4    206    -0.115000    12.0110   ; qtot -0.115
   207      HGR61     10     PETL    H41    207     0.115000     1.0080   ; qtot  0.000
   208     CG2R61     10     PETL     C5    208    -0.115000    12.0110   ; qtot -0.115
   209      HGR61     10     PETL    H51    209     0.115000     1.0080   ; qtot  0.000
   210     CG2R61     10     PETL     C6    210    -0.115000    12.0110   ; qtot -0.115
   211      HGR61     10     PETL    H61    211     0.115000     1.0080   ; qtot  0.000
   212     CG2R61     10     PETL     C7    212     0.090000    12.0110   ; qtot  0.090
   213      CG2O2     10     PETL     C8    213     0.770000    12.0110   ; qtot  0.860
   214      OG302     10     PETL     O3    214    -0.490000    15.9994   ; qtot  0.370
   215      OG2D1     10     PETL     O4    215    -0.630000    15.9994   ; qtot -0.260
   216      CG321     10     PETL     C9    216     0.080000    12.0110   ; qtot -0.180
   217       HGA2     10     PETL    H91    217     0.090000     1.0080   ; qtot -0.090
   218       HGA2     10     PETL    H92    218     0.090000     1.0080   ; qtot  0.000
   219      CG321     10     PETL    C10    219     0.050000    12.0110   ; qtot  0.050
   220       HGA2     10     PETL    HX1    220     0.090000     1.0080   ; qtot  0.140
   221       HGA2     10     PETL    HX2    221     0.090000     1.0080   ; qtot  0.230
   222       HGP1     10     PETL    HZ1    222     0.420000     1.0080   ; qtot  0.650
   223      OG311     10     PETL     OZ    223    -0.650000    15.9994   ; qtot  0.000

[ bonds ]
; ai	aj	funct	b0	Kb
    1     2     1
    3     2     1
    3     4     1
    3     5     1
    8     5     1
    5    10     1
    6     7     1
    6     8     1
    6    14     1
    8     9     1
   10    11     1
   10    12     1
   12    13     1
   12    14     1
   15    14     1
   15    16     1
   15    17     1
   18    16     1
   18    19     1
   18    20     1
   18    21     1
   21    22     1
   21    23     1
   21    24     1
   25    24     1
   25    26     1
   25    27     1
   30    27     1
   27    32     1
   28    29     1
   28    30     1
   28    36     1
   30    31     1
   32    33     1
   32    34     1
   34    35     1
   34    36     1
   37    36     1
   37    38     1
   37    39     1
   40    38     1
   40    41     1
   40    42     1
   40    43     1
   43    44     1
   43    45     1
   43    46     1
   47    46     1
   47    48     1
   47    49     1
   52    49     1
   49    54     1
   50    51     1
   50    52     1
   50    58     1
   52    53     1
   54    55     1
   54    56     1
   56    57     1
   56    58     1
   59    58     1
   59    60     1
   59    61     1
   62    60     1
   62    63     1
   62    64     1
   62    65     1
   65    66     1
   65    67     1
   65    68     1
   69    68     1
   69    70     1
   69    71     1
   74    71     1
   71    76     1
   72    73     1
   72    74     1
   72    80     1
   74    75     1
   76    77     1
   76    78     1
   78    79     1
   78    80     1
   81    80     1
   81    82     1
   81    83     1
   84    82     1
   84    85     1
   84    86     1
   84    87     1
   87    88     1
   87    89     1
   87    90     1
   91    90     1
   91    92     1
   91    93     1
   96    93     1
   93    98     1
   94    95     1
   94    96     1
   94   102     1
   96    97     1
   98    99     1
   98   100     1
  100   101     1
  100   102     1
  103   102     1
  103   104     1
  103   105     1
  106   104     1
  106   107     1
  106   108     1
  106   109     1
  109   110     1
  109   111     1
  109   112     1
  113   112     1
  113   114     1
  113   115     1
  118   115     1
  115   120     1
  116   117     1
  116   118     1
  116   124     1
  118   119     1
  120   121     1
  120   122     1
  122   123     1
  122   124     1
  125   124     1
  125   126     1
  125   127     1
  128   126     1
  128   129     1
  128   130     1
  128   131     1
  131   132     1
  131   133     1
  131   134     1
  135   134     1
  135   136     1
  135   137     1
  140   137     1
  137   142     1
  138   139     1
  138   140     1
  138   146     1
  140   141     1
  142   143     1
  142   144     1
  144   145     1
  144   146     1
  147   146     1
  147   148     1
  147   149     1
  150   148     1
  150   151     1
  150   152     1
  150   153     1
  153   154     1
  153   155     1
  153   156     1
  157   156     1
  157   158     1
  157   159     1
  162   159     1
  159   164     1
  160   161     1
  160   162     1
  160   168     1
  162   163     1
  164   165     1
  164   166     1
  166   167     1
  166   168     1
  169   168     1
  169   170     1
  169   171     1
  172   170     1
  172   173     1
  172   174     1
  172   175     1
  175   176     1
  175   177     1
  175   178     1
  179   178     1
  179   180     1
  179   181     1
  184   181     1
  181   186     1
  182   183     1
  182   184     1
  182   190     1
  184   185     1
  186   187     1
  186   188     1
  188   189     1
  188   190     1
  191   190     1
  191   192     1
  191   193     1
  194   192     1
  194   195     1
  194   196     1
  194   197     1
  197   198     1
  197   199     1
  197   200     1
  201   200     1
  201   202     1
  201   203     1
  206   203     1
  203   208     1
  204   205     1
  204   206     1
  204   212     1
  206   207     1
  208   209     1
  208   210     1
  210   211     1
  210   212     1
  213   212     1
  213   214     1
  213   215     1
  216   214     1
  216   217     1
  216   218     1
  216   219     1
  219   220     1
  219   221     1
  219   223     1
  222   223     1

[ pairs ]
; ai	aj	funct	c6	c12 or
; ai	aj	funct	fudgeQQ	q1	q2	c6	c12
    1     4     1
    1     5     1
    2     8     1
    2    10     1
    3     6     1
    3     9     1
    3    11     1
    3    12     1
    4     8     1
    4    10     1
    5     7     1
    5    13     1
    5    14     1
    6    10     1
    6    13     1
    6    16     1
    6    17     1
    7     9     1
    7    12     1
    7    15     1
    8    11     1
    8    12     1
    8    15     1
    9    10     1
    9    14     1
   10    15     1
   11    13     1
   11    14     1
   12    16     1
   12    17     1
   13    15     1
   14    18     1
   15    19     1
   15    20     1
   15    21     1
   16    22     1
   16    23     1
   17    18     1
   19    22     1
   19    23     1
   20    22     1
   20    23     1
   21    26     1
   21    27     1
   22    25     1
   23    25     1
   24    30     1
   24    32     1
   25    28     1
   25    31     1
   25    33     1
   25    34     1
   26    30     1
   26    32     1
   27    29     1
   27    35     1
   27    36     1
   28    32     1
   28    35     1
   28    38     1
   28    39     1
   29    31     1
   29    34     1
   29    37     1
   30    33     1
   30    34     1
   30    37     1
   31    32     1
   31    36     1
   32    37     1
   33    35     1
   33    36     1
   34    38     1
   34    39     1
   35    37     1
   36    40     1
   37    41     1
   37    42     1
   37    43     1
   38    44     1
   38    45     1
   39    40     1
   41    44     1
   41    45     1
   42    44     1
   42    45     1
   43    48     1
   43    49     1
   44    47     1
   45    47     1
   46    52     1
   46    54     1
   47    50     1
   47    53     1
   47    55     1
   47    56     1
   48    52     1
   48    54     1
   49    51     1
   49    57     1
   49    58     1
   50    54     1
   50    57     1
   50    60     1
   50    61     1
   51    53     1
   51    56     1
   51    59     1
   52    55     1
   52    56     1
   52    59     1
   53    54     1
   53    58     1
   54    59     1
   55    57     1
   55    58     1
   56    60     1
   56    61     1
   57    59     1
   58    62     1
   59    63     1
   59    64     1
   59    65     1
   60    66     1
   60    67     1
   61    62     1
   63    66     1
   63    67     1
   64    66     1
   64    67     1
   65    70     1
   65    71     1
   66    69     1
   67    69     1
   68    74     1
   68    76     1
   69    72     1
   69    75     1
   69    77     1
   69    78     1
   70    74     1
   70    76     1
   71    73     1
   71    79     1
   71    80     1
   72    76     1
   72    79     1
   72    82     1
   72    83     1
   73    75     1
   73    78     1
   73    81     1
   74    77     1
   74    78     1
   74    81     1
   75    76     1
   75    80     1
   76    81     1
   77    79     1
   77    80     1
   78    82     1
   78    83     1
   79    81     1
   80    84     1
   81    85     1
   81    86     1
   81    87     1
   82    88     1
   82    89     1
   83    84     1
   85    88     1
   85    89     1
   86    88     1
   86    89     1
   87    92     1
   87    93     1
   88    91     1
   89    91     1
   90    96     1
   90    98     1
   91    94     1
   91    97     1
   91    99     1
   91   100     1
   92    96     1
   92    98     1
   93    95     1
   93   101     1
   93   102     1
   94    98     1
   94   101     1
   94   104     1
   94   105     1
   95    97     1
   95   100     1
   95   103     1
   96    99     1
   96   100     1
   96   103     1
   97    98     1
   97   102     1
   98   103     1
   99   101     1
   99   102     1
  100   104     1
  100   105     1
  101   103     1
  102   106     1
  103   107     1
  103   108     1
  103   109     1
  104   110     1
  104   111     1
  105   106     1
  107   110     1
  107   111     1
  108   110     1
  108   111     1
  109   114     1
  109   115     1
  110   113     1
  111   113     1
  112   118     1
  112   120     1
  113   116     1
  113   119     1
  113   121     1
  113   122     1
  114   118     1
  114   120     1
  115   117     1
  115   123     1
  115   124     1
  116   120     1
  116   123     1
  116   126     1
  116   127     1
  117   119     1
  117   122     1
  117   125     1
  118   121     1
  118   122     1
  118   125     1
  119   120     1
  119   124     1
  120   125     1
  121   123     1
  121   124     1
  122   126     1
  122   127     1
  123   125     1
  124   128     1
  125   129     1
  125   130     1
  125   131     1
  126   132     1
  126   133     1
  127   128     1
  129   132     1
  129   133     1
  130   132     1
  130   133     1
  131   136     1
  131   137     1
  132   135     1
  133   135     1
  134   140     1
  134   142     1
  135   138     1
  135   141     1
  135   143     1
  135   144     1
  136   140     1
  136   142     1
  137   139     1
  137   145     1
  137   146     1
  138   142     1
  138   145     1
  138   148     1
  138   149     1
  139   141     1
  139   144     1
  139   147     1
  140   143     1
  140   144     1
  140   147     1
  141   142     1
  141   146     1
  142   147     1
  143   145     1
  143   146     1
  144   148     1
  144   149     1
  145   147     1
  146   150     1
  147   151     1
  147   152     1
  147   153     1
  148   154     1
  148   155     1
  149   150     1
  151   154     1
  151   155     1
  152   154     1
  152   155     1
  153   158     1
  153   159     1
  154   157     1
  155   157     1
  156   162     1
  156   164     1
  157   160     1
  157   163     1
  157   165     1
  157   166     1
  158   162     1
  158   164     1
  159   161     1
  159   167     1
  159   168     1
  160   164     1
  160   167     1
  160   170     1
  160   171     1
  161   163     1
  161   166     1
  161   169     1
  162   165     1
  162   166     1
  162   169     1
  163   164     1
  163   168     1
  164   169     1
  165   167     1
  165   168     1
  166   170     1
  166   171     1
  167   169     1
  168   172     1
  169   173     1
  169   174     1
  169   175     1
  170   176     1
  170   177     1
  171   172     1
  173   176     1
  173   177     1
  174   176     1
  174   177     1
  175   180     1
  175   181     1
  176   179     1
  177   179     1
  178   184     1
  178   186     1
  179   182     1
  179   185     1
  179   187     1
  179   188     1
  180   184     1
  180   186     1
  181   183     1
  181   189     1
  181   190     1
  182   186     1
  182   189     1
  182   192     1
  182   193     1
  183   185     1
  183   188     1
  183   191     1
  184   187     1
  184   188     1
  184   191     1
  185   186     1
  185   190     1
  186   191     1
  187   189     1
  187   190     1
  188   192     1
  188   193     1
  189   191     1
  190   194     1
  191   195     1
  191   196     1
  191   197     1
  192   198     1
  192   199     1
  193   194     1
  195   198     1
  195   199     1
  196   198     1
  196   199     1
  197   202     1
  197   203     1
  198   201     1
  199   201     1
  200   206     1
  200   208     1
  201   204     1
  201   207     1
  201   209     1
  201   210     1
  202   206     1
  202   208     1
  203   205     1
  203   211     1
  203   212     1
  204   208     1
  204   211     1
  204   214     1
  204   215     1
  205   207     1
  205   210     1
  205   213     1
  206   209     1
  206   210     1
  206   213     1
  207   208     1
  207   212     1
  208   213     1
  209   211     1
  209   212     1
  210   214     1
  210   215     1
  211   213     1
  212   216     1
  213   217     1
  213   218     1
  213   219     1
  214   220     1
  214   221     1
  214   223     1
  215   216     1
  216   222     1
  217   220     1
  217   221     1
  217   223     1
  218   220     1
  218   221     1
  218   223     1
  220   222     1
  221   222     1

[ angles ] 
; ai	aj	ak	funct	th0	cth	S0	Kub
    1     2     3     5
    2     3     4     5
    2     3     5     5
    4     3     5     5
    3     5     8     5
    3     5    10     5
    8     5    10     5
    7     6     8     5
    7     6    14     5
    8     6    14     5
    5     8     6     5
    5     8     9     5
    6     8     9     5
    5    10    11     5
    5    10    12     5
   11    10    12     5
   10    12    13     5
   10    12    14     5
   13    12    14     5
    6    14    12     5
    6    14    15     5
   12    14    15     5
   14    15    16     5
   14    15    17     5
   16    15    17     5
   15    16    18     5
   16    18    19     5
   16    18    20     5
   16    18    21     5
   19    18    20     5
   19    18    21     5
   20    18    21     5
   18    21    22     5
   18    21    23     5
   22    21    23     5
   22    21    24     5
   23    21    24     5
   21    24    25     5
   24    25    26     5
   24    25    27     5
   26    25    27     5
   25    27    30     5
   25    27    32     5
   30    27    32     5
   29    28    30     5
   29    28    36     5
   30    28    36     5
   27    30    28     5
   27    30    31     5
   28    30    31     5
   27    32    33     5
   27    32    34     5
   33    32    34     5
   32    34    35     5
   32    34    36     5
   35    34    36     5
   28    36    34     5
   28    36    37     5
   34    36    37     5
   36    37    38     5
   36    37    39     5
   38    37    39     5
   37    38    40     5
   38    40    41     5
   38    40    42     5
   38    40    43     5
   41    40    42     5
   41    40    43     5
   42    40    43     5
   40    43    44     5
   40    43    45     5
   44    43    45     5
   44    43    46     5
   45    43    46     5
   43    46    47     5
   46    47    48     5
   46    47    49     5
   48    47    49     5
   47    49    52     5
   47    49    54     5
   52    49    54     5
   51    50    52     5
   51    50    58     5
   52    50    58     5
   49    52    50     5
   49    52    53     5
   50    52    53     5
   49    54    55     5
   49    54    56     5
   55    54    56     5
   54    56    57     5
   54    56    58     5
   57    56    58     5
   50    58    56     5
   50    58    59     5
   56    58    59     5
   58    59    60     5
   58    59    61     5
   60    59    61     5
   59    60    62     5
   60    62    63     5
   60    62    64     5
   60    62    65     5
   63    62    64     5
   63    62    65     5
   64    62    65     5
   62    65    66     5
   62    65    67     5
   66    65    67     5
   66    65    68     5
   67    65    68     5
   65    68    69     5
   68    69    70     5
   68    69    71     5
   70    69    71     5
   69    71    74     5
   69    71    76     5
   74    71    76     5
   73    72    74     5
   73    72    80     5
   74    72    80     5
   71    74    72     5
   71    74    75     5
   72    74    75     5
   71    76    77     5
   71    76    78     5
   77    76    78     5
   76    78    79     5
   76    78    80     5
   79    78    80     5
   72    80    78     5
   72    80    81     5
   78    80    81     5
   80    81    82     5
   80    81    83     5
   82    81    83     5
   81    82    84     5
   82    84    85     5
   82    84    86     5
   82    84    87     5
   85    84    86     5
   85    84    87     5
   86    84    87     5
   84    87    88     5
   84    87    89     5
   88    87    89     5
   88    87    90     5
   89    87    90     5
   87    90    91     5
   90    91    92     5
   90    91    93     5
   92    91    93     5
   91    93    96     5
   91    93    98     5
   96    93    98     5
   95    94    96     5
   95    94   102     5
   96    94   102     5
   93    96    94     5
   93    96    97     5
   94    96    97     5
   93    98    99     5
   93    98   100     5
   99    98   100     5
   98   100   101     5
   98   100   102     5
  101   100   102     5
   94   102   100     5
   94   102   103     5
  100   102   103     5
  102   103   104     5
  102   103   105     5
  104   103   105     5
  103   104   106     5
  104   106   107     5
  104   106   108     5
  104   106   109     5
  107   106   108     5
  107   106   109     5
  108   106   109     5
  106   109   110     5
  106   109   111     5
  110   109   111     5
  110   109   112     5
  111   109   112     5
  109   112   113     5
  112   113   114     5
  112   113   115     5
  114   113   115     5
  113   115   118     5
  113   115   120     5
  118   115   120     5
  117   116   118     5
  117   116   124     5
  118   116   124     5
  115   118   116     5
  115   118   119     5
  116   118   119     5
  115   120   121     5
  115   120   122     5
  121   120   122     5
  120   122   123     5
  120   122   124     5
  123   122   124     5
  116   124   122     5
  116   124   125     5
  122   124   125     5
  124   125   126     5
  124   125   127     5
  126   125   127     5
  125   126   128     5
  126   128   129     5
  126   128   130     5
  126   128   131     5
  129   128   130     5
  129   128   131     5
  130   128   131     5
  128   131   132     5
  128   131   133     5
  132   131   133     5
  132   131   134     5
  133   131   134     5
  131   134   135     5
  134   135   136     5
  134   135   137     5
  136   135   137     5
  135   137   140     5
  135   137   142     5
  140   137   142     5
  139   138   140     5
  139   138   146     5
  140   138   146     5
  137   140   138     5
  137   140   141     5
  138   140   141     5
  137   142   143     5
  137   142   144     5
  143   142   144     5
  142   144   145     5
  142   144   146     5
  145   144   146     5
  138   146   144     5
  138   146   147     5
  144   146   147     5
  146   147   148     5
  146   147   149     5
  148   147   149     5
  147   148   150     5
  148   150   151     5
  148   150   152     5
  148   150   153     5
  151   150   152     5
  151   150   153     5
  152   150   153     5
  150   153   154     5
  150   153   155     5
  154   153   155     5
  154   153   156     5
  155   153   156     5
  153   156   157     5
  156   157   158     5
  156   157   159     5
  158   157   159     5
  157   159   162     5
  157   159   164     5
  162   159   164     5
  161   160   162     5
  161   160   168     5
  162   160   168     5
  159   162   160     5
  159   162   163     5
  160   162   163     5
  159   164   165     5
  159   164   166     5
  165   164   166     5
  164   166   167     5
  164   166   168     5
  167   166   168     5
  160   168   166     5
  160   168   169     5
  166   168   169     5
  168   169   170     5
  168   169   171     5
  170   169   171     5
  169   170   172     5
  170   172   173     5
  170   172   174     5
  170   172   175     5
  173   172   174     5
  173   172   175     5
  174   172   175     5
  172   175   176     5
  172   175   177     5
  176   175   177     5
  176   175   178     5
  177   175   178     5
  175   178   179     5
  178   179   180     5
  178   179   181     5
  180   179   181     5
  179   181   184     5
  179   181   186     5
  184   181   186     5
  183   182   184     5
  183   182   190     5
  184   182   190     5
  181   184   182     5
  181   184   185     5
  182   184   185     5
  181   186   187     5
  181   186   188     5
  187   186   188     5
  186   188   189     5
  186   188   190     5
  189   188   190     5
  182   190   188     5
  182   190   191     5
  188   190   191     5
  190   191   192     5
  190   191   193     5
  192   191   193     5
  191   192   194     5
  192   194   195     5
  192   194   196     5
  192   194   197     5
  195   194   196     5
  195   194   197     5
  196   194   197     5
  194   197   198     5
  194   197   199     5
  198   197   199     5
  198   197   200     5
  199   197   200     5
  197   200   201     5
  200   201   202     5
  200   201   203     5
  202   201   203     5
  201   203   206     5
  201   203   208     5
  206   203   208     5
  205   204   206     5
  205   204   212     5
  206   204   212     5
  203   206   204     5
  203   206   207     5
  204   206   207     5
  203   208   209     5
  203   208   210     5
  209   208   210     5
  208   210   211     5
  208   210   212     5
  211   210   212     5
  204   212   210     5
  204   212   213     5
  210   212   213     5
  212   213   214     5
  212   213   215     5
  214   213   215     5
  213   214   216     5
  214   216   217     5
  214   216   218     5
  214   216   219     5
  217   216   218     5
  217   216   219     5
  218   216   219     5
  216   219   220     5
  216   219   221     5
  216   219   223     5
  220   219   221     5
  220   219   223     5
  221   219   223     5
  219   223   222     5

[ dihedrals ]
; ai	aj	ak	al	funct	phi0	cp	mult
    1     2     3     4     9
    1     2     3     5     9
    2     3     5     8     9
    2     3     5    10     9
    4     3     5     8     9
    4     3     5    10     9
    3     5     8     6     9
    3     5     8     9     9
    3     5    10    11     9
    3     5    10    12     9
    8     5    10    11     9
    8     5    10    12     9
    7     6     8     9     9
    7     6    14    12     9
    7     6    14    15     9
    8     6    14    12     9
    8     6    14    15     9
    6     8     5    10     9
    9     8     5    10     9
    5     8     6     7     9
    5     8     6    14     9
    9     8     6    14     9
    5    10    12    13     9
    5    10    12    14     9
   11    10    12    13     9
   11    10    12    14     9
   10    12    14    15     9
   13    12    14    15     9
    6    14    12    10     9
    6    14    12    13     9
    6    14    15    16     9
    6    14    15    17     9
   12    14    15    16     9
   12    14    15    17     9
   14    15    16    18     9
   17    15    16    18     9
   15    16    18    19     9
   15    16    18    20     9
   15    16    18    21     9
   16    18    21    22     9
   16    18    21    23     9
   19    18    21    22     9
   19    18    21    23     9
   20    18    21    22     9
   20    18    21    23     9
   22    21    24    25     9
   23    21    24    25     9
   21    24    25    26     9
   21    24    25    27     9
   24    25    27    30     9
   24    25    27    32     9
   26    25    27    30     9
   26    25    27    32     9
   25    27    30    28     9
   25    27    30    31     9
   25    27    32    33     9
   25    27    32    34     9
   30    27    32    33     9
   30    27    32    34     9
   29    28    30    31     9
   29    28    36    34     9
   29    28    36    37     9
   30    28    36    34     9
   30    28    36    37     9
   28    30    27    32     9
   31    30    27    32     9
   27    30    28    29     9
   27    30    28    36     9
   31    30    28    36     9
   27    32    34    35     9
   27    32    34    36     9
   33    32    34    35     9
   33    32    34    36     9
   32    34    36    37     9
   35    34    36    37     9
   28    36    34    32     9
   28    36    34    35     9
   28    36    37    38     9
   28    36    37    39     9
   34    36    37    38     9
   34    36    37    39     9
   36    37    38    40     9
   39    37    38    40     9
   37    38    40    41     9
   37    38    40    42     9
   37    38    40    43     9
   38    40    43    44     9
   38    40    43    45     9
   41    40    43    44     9
   41    40    43    45     9
   42    40    43    44     9
   42    40    43    45     9
   44    43    46    47     9
   45    43    46    47     9
   43    46    47    48     9
   43    46    47    49     9
   46    47    49    52     9
   46    47    49    54     9
   48    47    49    52     9
   48    47    49    54     9
   47    49    52    50     9
   47    49    52    53     9
   47    49    54    55     9
   47    49    54    56     9
   52    49    54    55     9
   52    49    54    56     9
   51    50    52    53     9
   51    50    58    56     9
   51    50    58    59     9
   52    50    58    56     9
   52    50    58    59     9
   50    52    49    54     9
   53    52    49    54     9
   49    52    50    51     9
   49    52    50    58     9
   53    52    50    58     9
   49    54    56    57     9
   49    54    56    58     9
   55    54    56    57     9
   55    54    56    58     9
   54    56    58    59     9
   57    56    58    59     9
   50    58    56    54     9
   50    58    56    57     9
   50    58    59    60     9
   50    58    59    61     9
   56    58    59    60     9
   56    58    59    61     9
   58    59    60    62     9
   61    59    60    62     9
   59    60    62    63     9
   59    60    62    64     9
   59    60    62    65     9
   60    62    65    66     9
   60    62    65    67     9
   63    62    65    66     9
   63    62    65    67     9
   64    62    65    66     9
   64    62    65    67     9
   66    65    68    69     9
   67    65    68    69     9
   65    68    69    70     9
   65    68    69    71     9
   68    69    71    74     9
   68    69    71    76     9
   70    69    71    74     9
   70    69    71    76     9
   69    71    74    72     9
   69    71    74    75     9
   69    71    76    77     9
   69    71    76    78     9
   74    71    76    77     9
   74    71    76    78     9
   73    72    74    75     9
   73    72    80    78     9
   73    72    80    81     9
   74    72    80    78     9
   74    72    80    81     9
   72    74    71    76     9
   75    74    71    76     9
   71    74    72    73     9
   71    74    72    80     9
   75    74    72    80     9
   71    76    78    79     9
   71    76    78    80     9
   77    76    78    79     9
   77    76    78    80     9
   76    78    80    81     9
   79    78    80    81     9
   72    80    78    76     9
   72    80    78    79     9
   72    80    81    82     9
   72    80    81    83     9
   78    80    81    82     9
   78    80    81    83     9
   80    81    82    84     9
   83    81    82    84     9
   81    82    84    85     9
   81    82    84    86     9
   81    82    84    87     9
   82    84    87    88     9
   82    84    87    89     9
   85    84    87    88     9
   85    84    87    89     9
   86    84    87    88     9
   86    84    87    89     9
   88    87    90    91     9
   89    87    90    91     9
   87    90    91    92     9
   87    90    91    93     9
   90    91    93    96     9
   90    91    93    98     9
   92    91    93    96     9
   92    91    93    98     9
   91    93    96    94     9
   91    93    96    97     9
   91    93    98    99     9
   91    93    98   100     9
   96    93    98    99     9
   96    93    98   100     9
   95    94    96    97     9
   95    94   102   100     9
   95    94   102   103     9
   96    94   102   100     9
   96    94   102   103     9
   94    96    93    98     9
   97    96    93    98     9
   93    96    94    95     9
   93    96    94   102     9
   97    96    94   102     9
   93    98   100   101     9
   93    98   100   102     9
   99    98   100   101     9
   99    98   100   102     9
   98   100   102   103     9
  101   100   102   103     9
   94   102   100    98     9
   94   102   100   101     9
   94   102   103   104     9
   94   102   103   105     9
  100   102   103   104     9
  100   102   103   105     9
  102   103   104   106     9
  105   103   104   106     9
  103   104   106   107     9
  103   104   106   108     9
  103   104   106   109     9
  104   106   109   110     9
  104   106   109   111     9
  107   106   109   110     9
  107   106   109   111     9
  108   106   109   110     9
  108   106   109   111     9
  110   109   112   113     9
  111   109   112   113     9
  109   112   113   114     9
  109   112   113   115     9
  112   113   115   118     9
  112   113   115   120     9
  114   113   115   118     9
  114   113   115   120     9
  113   115   118   116     9
  113   115   118   119     9
  113   115   120   121     9
  113   115   120   122     9
  118   115   120   121     9
  118   115   120   122     9
  117   116   118   119     9
  117   116   124   122     9
  117   116   124   125     9
  118   116   124   122     9
  118   116   124   125     9
  116   118   115   120     9
  119   118   115   120     9
  115   118   116   117     9
  115   118   116   124     9
  119   118   116   124     9
  115   120   122   123     9
  115   120   122   124     9
  121   120   122   123     9
  121   120   122   124     9
  120   122   124   125     9
  123   122   124   125     9
  116   124   122   120     9
  116   124   122   123     9
  116   124   125   126     9
  116   124   125   127     9
  122   124   125   126     9
  122   124   125   127     9
  124   125   126   128     9
  127   125   126   128     9
  125   126   128   129     9
  125   126   128   130     9
  125   126   128   131     9
  126   128   131   132     9
  126   128   131   133     9
  129   128   131   132     9
  129   128   131   133     9
  130   128   131   132     9
  130   128   131   133     9
  132   131   134   135     9
  133   131   134   135     9
  131   134   135   136     9
  131   134   135   137     9
  134   135   137   140     9
  134   135   137   142     9
  136   135   137   140     9
  136   135   137   142     9
  135   137   140   138     9
  135   137   140   141     9
  135   137   142   143     9
  135   137   142   144     9
  140   137   142   143     9
  140   137   142   144     9
  139   138   140   141     9
  139   138   146   144     9
  139   138   146   147     9
  140   138   146   144     9
  140   138   146   147     9
  138   140   137   142     9
  141   140   137   142     9
  137   140   138   139     9
  137   140   138   146     9
  141   140   138   146     9
  137   142   144   145     9
  137   142   144   146     9
  143   142   144   145     9
  143   142   144   146     9
  142   144   146   147     9
  145   144   146   147     9
  138   146   144   142     9
  138   146   144   145     9
  138   146   147   148     9
  138   146   147   149     9
  144   146   147   148     9
  144   146   147   149     9
  146   147   148   150     9
  149   147   148   150     9
  147   148   150   151     9
  147   148   150   152     9
  147   148   150   153     9
  148   150   153   154     9
  148   150   153   155     9
  151   150   153   154     9
  151   150   153   155     9
  152   150   153   154     9
  152   150   153   155     9
  154   153   156   157     9
  155   153   156   157     9
  153   156   157   158     9
  153   156   157   159     9
  156   157   159   162     9
  156   157   159   164     9
  158   157   159   162     9
  158   157   159   164     9
  157   159   162   160     9
  157   159   162   163     9
  157   159   164   165     9
  157   159   164   166     9
  162   159   164   165     9
  162   159   164   166     9
  161   160   162   163     9
  161   160   168   166     9
  161   160   168   169     9
  162   160   168   166     9
  162   160   168   169     9
  160   162   159   164     9
  163   162   159   164     9
  159   162   160   161     9
  159   162   160   168     9
  163   162   160   168     9
  159   164   166   167     9
  159   164   166   168     9
  165   164   166   167     9
  165   164   166   168     9
  164   166   168   169     9
  167   166   168   169     9
  160   168   166   164     9
  160   168   166   167     9
  160   168   169   170     9
  160   168   169   171     9
  166   168   169   170     9
  166   168   169   171     9
  168   169   170   172     9
  171   169   170   172     9
  169   170   172   173     9
  169   170   172   174     9
  169   170   172   175     9
  170   172   175   176     9
  170   172   175   177     9
  173   172   175   176     9
  173   172   175   177     9
  174   172   175   176     9
  174   172   175   177     9
  176   175   178   179     9
  177   175   178   179     9
  175   178   179   180     9
  175   178   179   181     9
  178   179   181   184     9
  178   179   181   186     9
  180   179   181   184     9
  180   179   181   186     9
  179   181   184   182     9
  179   181   184   185     9
  179   181   186   187     9
  179   181   186   188     9
  184   181   186   187     9
  184   181   186   188     9
  183   182   184   185     9
  183   182   190   188     9
  183   182   190   191     9
  184   182   190   188     9
  184   182   190   191     9
  182   184   181   186     9
  185   184   181   186     9
  181   184   182   183     9
  181   184   182   190     9
  185   184   182   190     9
  181   186   188   189     9
  181   186   188   190     9
  187   186   188   189     9
  187   186   188   190     9
  186   188   190   191     9
  189   188   190   191     9
  182   190   188   186     9
  182   190   188   189     9
  182   190   191   192     9
  182   190   191   193     9
  188   190   191   192     9
  188   190   191   193     9
  190   191   192   194     9
  193   191   192   194     9
  191   192   194   195     9
  191   192   194   196     9
  191   192   194   197     9
  192   194   197   198     9
  192   194   197   199     9
  195   194   197   198     9
  195   194   197   199     9
  196   194   197   198     9
  196   194   197   199     9
  198   197   200   201     9
  199   197   200   201     9
  197   200   201   202     9
  197   200   201   203     9
  200   201   203   206     9
  200   201   203   208     9
  202   201   203   206     9
  202   201   203   208     9
  201   203   206   204     9
  201   203   206   207     9
  201   203   208   209     9
  201   203   208   210     9
  206   203   208   209     9
  206   203   208   210     9
  205   204   206   207     9
  205   204   212   210     9
  205   204   212   213     9
  206   204   212   210     9
  206   204   212   213     9
  204   206   203   208     9
  207   206   203   208     9
  203   206   204   205     9
  203   206   204   212     9
  207   206   204   212     9
  203   208   210   211     9
  203   208   210   212     9
  209   208   210   211     9
  209   208   210   212     9
  208   210   212   213     9
  211   210   212   213     9
  204   212   210   208     9
  204   212   210   211     9
  204   212   213   214     9
  204   212   213   215     9
  210   212   213   214     9
  210   212   213   215     9
  212   213   214   216     9
  215   213   214   216     9
  213   214   216   217     9
  213   214   216   218     9
  213   214   216   219     9
  214   216   219   220     9
  214   216   219   221     9
  214   216   219   223     9
  217   216   219   220     9
  217   216   219   221     9
  217   216   219   223     9
  218   216   219   220     9
  218   216   219   221     9
  218   216   219   223     9
  216   219   223   222     9
  220   219   223   222     9
  221   219   223   222     9

[ dihedrals ]
; ai	aj	ak	al	funct	q0	cq
    3     5     4     2     2
   15    14    17    16     2
   25    27    26    24     2
   37    36    39    38     2
   47    49    48    46     2
   59    58    61    60     2
   69    71    70    68     2
   81    80    83    82     2
   91    93    92    90     2
  103   102   105   104     2
  113   115   114   112     2
  125   124   127   126     2
  135   137   136   134     2
  147   146   149   148     2
  157   159   158   156     2
  169   168   171   170     2
  179   181   180   178     2
  191   190   193   192     2
  201   203   202   200     2
  213   212   215   214     2

#ifdef POSRES
[ position_restraints ]
    2     1    POSRES_FC_BB    POSRES_FC_BB    POSRES_FC_BB   
    3     1    POSRES_FC_BB    POSRES_FC_BB    POSRES_FC_BB   
    4     1    POSRES_FC_BB    POSRES_FC_BB    POSRES_FC_BB   
    5     1    POSRES_FC_BB    POSRES_FC_BB    POSRES_FC_BB   
    6     1    POSRES_FC_BB    POSRES_FC_BB    POSRES_FC_BB   
    8     1    POSRES_FC_BB    POSRES_FC_BB    POSRES_FC_BB   
   10     1    POSRES_FC_BB    POSRES_FC_BB    POSRES_FC_BB   
   12     1    POSRES_FC_BB    POSRES_FC_BB    POSRES_FC_BB   
   14     1    POSRES_FC_BB    POSRES_FC_BB    POSRES_FC_BB   
   15     1    POSRES_FC_BB    POSRES_FC_BB    POSRES_FC_BB   
   16     1    POSRES_FC_BB    POSRES_FC_BB    POSRES_FC_BB   
   17     1    POSRES_FC_BB    POSRES_FC_BB    POSRES_FC_BB   
   18     1    POSRES_FC_BB    POSRES_FC_BB    POSRES_FC_BB   
   21     1    POSRES_FC_BB    POSRES_FC_BB    POSRES_FC_BB   
   24     1    POSRES_FC_BB    POSRES_FC_BB    POSRES_FC_BB   
   25     1    POSRES_FC_BB    POSRES_FC_BB    POSRES_FC_BB   
   26     1    POSRES_FC_BB    POSRES_FC_BB    POSRES_FC_BB   
   27     1    POSRES_FC_BB    POSRES_FC_BB    POSRES_FC_BB   
   28     1    POSRES_FC_BB    POSRES_FC_BB    POSRES_FC_BB   
   30     1    POSRES_FC_BB    POSRES_FC_BB    POSRES_FC_BB   
   32     1    POSRES_FC_BB    POSRES_FC_BB    POSRES_FC_BB   
   34     1    POSRES_FC_BB    POSRES_FC_BB    POSRES_FC_BB   
   36     1    POSRES_FC_BB    POSRES_FC_BB    POSRES_FC_BB   
   37     1    POSRES_FC_BB    POSRES_FC_BB    POSRES_FC_BB   
   38     1    POSRES_FC_BB    POSRES_FC_BB    POSRES_FC_BB   
   39     1    POSRES_FC_BB    POSRES_FC_BB    POSRES_FC_BB   
   40     1    POSRES_FC_BB    POSRES_FC_BB    POSRES_FC_BB   
   43     1    POSRES_FC_BB    POSRES_FC_BB    POSRES_FC_BB   
   46     1    POSRES_FC_BB    POSRES_FC_BB    POSRES_FC_BB   
   47     1    POSRES_FC_BB    POSRES_FC_BB    POSRES_FC_BB   
   48     1    POSRES_FC_BB    POSRES_FC_BB    POSRES_FC_BB   
   49     1    POSRES_FC_BB    POSRES_FC_BB    POSRES_FC_BB   
   50     1    POSRES_FC_BB    POSRES_FC_BB    POSRES_FC_BB   
   52     1    POSRES_FC_BB    POSRES_FC_BB    POSRES_FC_BB   
   54     1    POSRES_FC_BB    POSRES_FC_BB    POSRES_FC_BB   
   56     1    POSRES_FC_BB    POSRES_FC_BB    POSRES_FC_BB   
   58     1    POSRES_FC_BB    POSRES_FC_BB    POSRES_FC_BB   
   59     1    POSRES_FC_BB    POSRES_FC_BB    POSRES_FC_BB   
   60     1    POSRES_FC_BB    POSRES_FC_BB    POSRES_FC_BB   
   61     1    POSRES_FC_BB    POSRES_FC_BB    POSRES_FC_BB   
   62     1    POSRES_FC_BB    POSRES_FC_BB    POSRES_FC_BB   
   65     1    POSRES_FC_BB    POSRES_FC_BB    POSRES_FC_BB   
   68     1    POSRES_FC_BB    POSRES_FC_BB    POSRES_FC_BB   
   69     1    POSRES_FC_BB    POSRES_FC_BB    POSRES_FC_BB   
   70     1    POSRES_FC_BB    POSRES_FC_BB    POSRES_FC_BB   
   71     1    POSRES_FC_BB    POSRES_FC_BB    POSRES_FC_BB   
   72     1    POSRES_FC_BB    POSRES_FC_BB    POSRES_FC_BB   
   74     1    POSRES_FC_BB    POSRES_FC_BB    POSRES_FC_BB   
   76     1    POSRES_FC_BB    POSRES_FC_BB    POSRES_FC_BB   
   78     1    POSRES_FC_BB    POSRES_FC_BB    POSRES_FC_BB   
   80     1    POSRES_FC_BB    POSRES_FC_BB    POSRES_FC_BB   
   81     1    POSRES_FC_BB    POSRES_FC_BB    POSRES_FC_BB   
   82     1    POSRES_FC_BB    POSRES_FC_BB    POSRES_FC_BB   
   83     1    POSRES_FC_BB    POSRES_FC_BB    POSRES_FC_BB   
   84     1    POSRES_FC_BB    POSRES_FC_BB    POSRES_FC_BB   
   87     1    POSRES_FC_BB    POSRES_FC_BB    POSRES_FC_BB   
   90     1    POSRES_FC_BB    POSRES_FC_BB    POSRES_FC_BB   
   91     1    POSRES_FC_BB    POSRES_FC_BB    POSRES_FC_BB   
   92     1    POSRES_FC_BB    POSRES_FC_BB    POSRES_FC_BB   
   93     1    POSRES_FC_BB    POSRES_FC_BB    POSRES_FC_BB   
   94     1    POSRES_FC_BB    POSRES_FC_BB    POSRES_FC_BB   
   96     1    POSRES_FC_BB    POSRES_FC_BB    POSRES_FC_BB   
   98     1    POSRES_FC_BB    POSRES_FC_BB    POSRES_FC_BB   
  100     1    POSRES_FC_BB    POSRES_FC_BB    POSRES_FC_BB   
  102     1    POSRES_FC_BB    POSRES_FC_BB    POSRES_FC_BB   
  103     1    POSRES_FC_BB    POSRES_FC_BB    POSRES_FC_BB   
  104     1    POSRES_FC_BB    POSRES_FC_BB    POSRES_FC_BB   
  105     1    POSRES_FC_BB    POSRES_FC_BB    POSRES_FC_BB   
  106     1    POSRES_FC_BB    POSRES_FC_BB    POSRES_FC_BB   
  109     1    POSRES_FC_BB    POSRES_FC_BB    POSRES_FC_BB   
  112     1    POSRES_FC_BB    POSRES_FC_BB    POSRES_FC_BB   
  113     1    POSRES_FC_BB    POSRES_FC_BB    POSRES_FC_BB   
  114     1    POSRES_FC_BB    POSRES_FC_BB    POSRES_FC_BB   
  115     1    POSRES_FC_BB    POSRES_FC_BB    POSRES_FC_BB   
  116     1    POSRES_FC_BB    POSRES_FC_BB    POSRES_FC_BB   
  118     1    POSRES_FC_BB    POSRES_FC_BB    POSRES_FC_BB   
  120     1    POSRES_FC_BB    POSRES_FC_BB    POSRES_FC_BB   
  122     1    POSRES_FC_BB    POSRES_FC_BB    POSRES_FC_BB   
  124     1    POSRES_FC_BB    POSRES_FC_BB    POSRES_FC_BB   
  125     1    POSRES_FC_BB    POSRES_FC_BB    POSRES_FC_BB   
  126     1    POSRES_FC_BB    POSRES_FC_BB    POSRES_FC_BB   
  127     1    POSRES_FC_BB    POSRES_FC_BB    POSRES_FC_BB   
  128     1    POSRES_FC_BB    POSRES_FC_BB    POSRES_FC_BB   
  131     1    POSRES_FC_BB    POSRES_FC_BB    POSRES_FC_BB   
  134     1    POSRES_FC_BB    POSRES_FC_BB    POSRES_FC_BB   
  135     1    POSRES_FC_BB    POSRES_FC_BB    POSRES_FC_BB   
  136     1    POSRES_FC_BB    POSRES_FC_BB    POSRES_FC_BB   
  137     1    POSRES_FC_BB    POSRES_FC_BB    POSRES_FC_BB   
  138     1    POSRES_FC_BB    POSRES_FC_BB    POSRES_FC_BB   
  140     1    POSRES_FC_BB    POSRES_FC_BB    POSRES_FC_BB   
  142     1    POSRES_FC_BB    POSRES_FC_BB    POSRES_FC_BB   
  144     1    POSRES_FC_BB    POSRES_FC_BB    POSRES_FC_BB   
  146     1    POSRES_FC_BB    POSRES_FC_BB    POSRES_FC_BB   
  147     1    POSRES_FC_BB    POSRES_FC_BB    POSRES_FC_BB   
  148     1    POSRES_FC_BB    POSRES_FC_BB    POSRES_FC_BB   
  149     1    POSRES_FC_BB    POSRES_FC_BB    POSRES_FC_BB   
  150     1    POSRES_FC_BB    POSRES_FC_BB    POSRES_FC_BB   
  153     1    POSRES_FC_BB    POSRES_FC_BB    POSRES_FC_BB   
  156     1    POSRES_FC_BB    POSRES_FC_BB    POSRES_FC_BB   
  157     1    POSRES_FC_BB    POSRES_FC_BB    POSRES_FC_BB   
  158     1    POSRES_FC_BB    POSRES_FC_BB    POSRES_FC_BB   
  159     1    POSRES_FC_BB    POSRES_FC_BB    POSRES_FC_BB   
  160     1    POSRES_FC_BB    POSRES_FC_BB    POSRES_FC_BB   
  162     1    POSRES_FC_BB    POSRES_FC_BB    POSRES_FC_BB   
  164     1    POSRES_FC_BB    POSRES_FC_BB    POSRES_FC_BB   
  166     1    POSRES_FC_BB    POSRES_FC_BB    POSRES_FC_BB   
  168     1    POSRES_FC_BB    POSRES_FC_BB    POSRES_FC_BB   
  169     1    POSRES_FC_BB    POSRES_FC_BB    POSRES_FC_BB   
  170     1    POSRES_FC_BB    POSRES_FC_BB    POSRES_FC_BB   
  171     1    POSRES_FC_BB    POSRES_FC_BB    POSRES_FC_BB   
  172     1    POSRES_FC_BB    POSRES_FC_BB    POSRES_FC_BB   
  175     1    POSRES_FC_BB    POSRES_FC_BB    POSRES_FC_BB   
  178     1    POSRES_FC_BB    POSRES_FC_BB    POSRES_FC_BB   
  179     1    POSRES_FC_BB    POSRES_FC_BB    POSRES_FC_BB   
  180     1    POSRES_FC_BB    POSRES_FC_BB    POSRES_FC_BB   
  181     1    POSRES_FC_BB    POSRES_FC_BB    POSRES_FC_BB   
  182     1    POSRES_FC_BB    POSRES_FC_BB    POSRES_FC_BB   
  184     1    POSRES_FC_BB    POSRES_FC_BB    POSRES_FC_BB   
  186     1    POSRES_FC_BB    POSRES_FC_BB    POSRES_FC_BB   
  188     1    POSRES_FC_BB    POSRES_FC_BB    POSRES_FC_BB   
  190     1    POSRES_FC_BB    POSRES_FC_BB    POSRES_FC_BB   
  191     1    POSRES_FC_BB    POSRES_FC_BB    POSRES_FC_BB   
  192     1    POSRES_FC_BB    POSRES_FC_BB    POSRES_FC_BB   
  193     1    POSRES_FC_BB    POSRES_FC_BB    POSRES_FC_BB   
  194     1    POSRES_FC_BB    POSRES_FC_BB    POSRES_FC_BB   
  197     1    POSRES_FC_BB    POSRES_FC_BB    POSRES_FC_BB   
  200     1    POSRES_FC_BB    POSRES_FC_BB    POSRES_FC_BB   
  201     1    POSRES_FC_BB    POSRES_FC_BB    POSRES_FC_BB   
  202     1    POSRES_FC_BB    POSRES_FC_BB    POSRES_FC_BB   
  203     1    POSRES_FC_BB    POSRES_FC_BB    POSRES_FC_BB   
  204     1    POSRES_FC_BB    POSRES_FC_BB    POSRES_FC_BB   
  206     1    POSRES_FC_BB    POSRES_FC_BB    POSRES_FC_BB   
  208     1    POSRES_FC_BB    POSRES_FC_BB    POSRES_FC_BB   
  210     1    POSRES_FC_BB    POSRES_FC_BB    POSRES_FC_BB   
  212     1    POSRES_FC_BB    POSRES_FC_BB    POSRES_FC_BB   
  213     1    POSRES_FC_BB    POSRES_FC_BB    POSRES_FC_BB   
  214     1    POSRES_FC_BB    POSRES_FC_BB    POSRES_FC_BB   
  215     1    POSRES_FC_BB    POSRES_FC_BB    POSRES_FC_BB   
  216     1    POSRES_FC_BB    POSRES_FC_BB    POSRES_FC_BB   
  219     1    POSRES_FC_BB    POSRES_FC_BB    POSRES_FC_BB   
  223     1    POSRES_FC_BB    POSRES_FC_BB    POSRES_FC_BB   
#endif
