;;
;; Generated by CHARMM-GUI FF-Converter
;;
;; Correspondance:
;; jul316@lehigh.edu or wonpil@lehigh.edu
;;
;; GROMACS topology file for P1
;;


[ moleculetype ]
; name	nrexcl
P1	     3

[ atoms ]
; nr	type	resnr	residu	atom	cgnr	charge	mass
     1       HGP1      1     PETL    H11      1     0.420000     1.0080   ; qtot  0.420
     2      OG311      1     PETL     O1      2    -0.590000    15.9994   ; qtot -0.170
     3      CG2O2      1     PETL     C1      3     0.710000    12.0110   ; qtot  0.540
     4      OG2D1      1     PETL     O2      4    -0.630000    15.9994   ; qtot -0.090
     5     CG2R61      1     PETL     C2      5     0.090000    12.0110   ; qtot  0.000
     6     CG2R61      1     PETL     C3      6    -0.115000    12.0110   ; qtot -0.115
     7      HGR61      1     PETL    H31      7     0.115000     1.0080   ; qtot  0.000
     8     CG2R61      1     PETL     C4      8    -0.115000    12.0110   ; qtot -0.115
     9      HGR61      1     PETL    H41      9     0.115000     1.0080   ; qtot  0.000
    10     CG2R61      1     PETL     C5     10    -0.115000    12.0110   ; qtot -0.115
    11      HGR61      1     PETL    H51     11     0.115000     1.0080   ; qtot  0.000
    12     CG2R61      1     PETL     C6     12    -0.115000    12.0110   ; qtot -0.115
    13      HGR61      1     PETL    H61     13     0.115000     1.0080   ; qtot  0.000
    14     CG2R61      1     PETL     C7     14     0.090000    12.0110   ; qtot  0.090
    15      CG2O2      1     PETL     C8     15     0.770000    12.0110   ; qtot  0.860
    16      OG302      1     PETL     O3     16    -0.490000    15.9994   ; qtot  0.370
    17      OG2D1      1     PETL     O4     17    -0.630000    15.9994   ; qtot -0.260
    18      CG321      1     PETL     C9     18     0.080000    12.0110   ; qtot -0.180
    19       HGA2      1     PETL    H91     19     0.090000     1.0080   ; qtot -0.090
    20       HGA2      1     PETL    H92     20     0.090000     1.0080   ; qtot  0.000
    21      CG321      1     PETL    C10     21     0.080000    12.0110   ; qtot  0.080
    22       HGA2      1     PETL    HX1     22     0.090000     1.0080   ; qtot  0.170
    23       HGA2      1     PETL    HX2     23     0.090000     1.0080   ; qtot  0.260
    24      OG302      2     PETL     O1     24    -0.490000    15.9994   ; qtot -0.230
    25      CG2O2      2     PETL     C1     25     0.770000    12.0110   ; qtot  0.540
    26      OG2D1      2     PETL     O2     26    -0.630000    15.9994   ; qtot -0.090
    27     CG2R61      2     PETL     C2     27     0.090000    12.0110   ; qtot  0.000
    28     CG2R61      2     PETL     C3     28    -0.115000    12.0110   ; qtot -0.115
    29      HGR61      2     PETL    H31     29     0.115000     1.0080   ; qtot  0.000
    30     CG2R61      2     PETL     C4     30    -0.115000    12.0110   ; qtot -0.115
    31      HGR61      2     PETL    H41     31     0.115000     1.0080   ; qtot  0.000
    32     CG2R61      2     PETL     C5     32    -0.115000    12.0110   ; qtot -0.115
    33      HGR61      2     PETL    H51     33     0.115000     1.0080   ; qtot  0.000
    34     CG2R61      2     PETL     C6     34    -0.115000    12.0110   ; qtot -0.115
    35      HGR61      2     PETL    H61     35     0.115000     1.0080   ; qtot  0.000
    36     CG2R61      2     PETL     C7     36     0.090000    12.0110   ; qtot  0.090
    37      CG2O2      2     PETL     C8     37     0.770000    12.0110   ; qtot  0.860
    38      OG302      2     PETL     O3     38    -0.490000    15.9994   ; qtot  0.370
    39      OG2D1      2     PETL     O4     39    -0.630000    15.9994   ; qtot -0.260
    40      CG321      2     PETL     C9     40     0.080000    12.0110   ; qtot -0.180
    41       HGA2      2     PETL    H91     41     0.090000     1.0080   ; qtot -0.090
    42       HGA2      2     PETL    H92     42     0.090000     1.0080   ; qtot  0.000
    43      CG321      2     PETL    C10     43     0.080000    12.0110   ; qtot  0.080
    44       HGA2      2     PETL    HX1     44     0.090000     1.0080   ; qtot  0.170
    45       HGA2      2     PETL    HX2     45     0.090000     1.0080   ; qtot  0.260
    46      OG302      3     PETL     O1     46    -0.490000    15.9994   ; qtot -0.230
    47      CG2O2      3     PETL     C1     47     0.770000    12.0110   ; qtot  0.540
    48      OG2D1      3     PETL     O2     48    -0.630000    15.9994   ; qtot -0.090
    49     CG2R61      3     PETL     C2     49     0.090000    12.0110   ; qtot  0.000
    50     CG2R61      3     PETL     C3     50    -0.115000    12.0110   ; qtot -0.115
    51      HGR61      3     PETL    H31     51     0.115000     1.0080   ; qtot  0.000
    52     CG2R61      3     PETL     C4     52    -0.115000    12.0110   ; qtot -0.115
    53      HGR61      3     PETL    H41     53     0.115000     1.0080   ; qtot  0.000
    54     CG2R61      3     PETL     C5     54    -0.115000    12.0110   ; qtot -0.115
    55      HGR61      3     PETL    H51     55     0.115000     1.0080   ; qtot  0.000
    56     CG2R61      3     PETL     C6     56    -0.115000    12.0110   ; qtot -0.115
    57      HGR61      3     PETL    H61     57     0.115000     1.0080   ; qtot  0.000
    58     CG2R61      3     PETL     C7     58     0.090000    12.0110   ; qtot  0.090
    59      CG2O2      3     PETL     C8     59     0.770000    12.0110   ; qtot  0.860
    60      OG302      3     PETL     O3     60    -0.490000    15.9994   ; qtot  0.370
    61      OG2D1      3     PETL     O4     61    -0.630000    15.9994   ; qtot -0.260
    62      CG321      3     PETL     C9     62     0.080000    12.0110   ; qtot -0.180
    63       HGA2      3     PETL    H91     63     0.090000     1.0080   ; qtot -0.090
    64       HGA2      3     PETL    H92     64     0.090000     1.0080   ; qtot  0.000
    65      CG321      3     PETL    C10     65     0.080000    12.0110   ; qtot  0.080
    66       HGA2      3     PETL    HX1     66     0.090000     1.0080   ; qtot  0.170
    67       HGA2      3     PETL    HX2     67     0.090000     1.0080   ; qtot  0.260
    68      OG302      4     PETL     O1     68    -0.490000    15.9994   ; qtot -0.230
    69      CG2O2      4     PETL     C1     69     0.770000    12.0110   ; qtot  0.540
    70      OG2D1      4     PETL     O2     70    -0.630000    15.9994   ; qtot -0.090
    71     CG2R61      4     PETL     C2     71     0.090000    12.0110   ; qtot  0.000
    72     CG2R61      4     PETL     C3     72    -0.115000    12.0110   ; qtot -0.115
    73      HGR61      4     PETL    H31     73     0.115000     1.0080   ; qtot  0.000
    74     CG2R61      4     PETL     C4     74    -0.115000    12.0110   ; qtot -0.115
    75      HGR61      4     PETL    H41     75     0.115000     1.0080   ; qtot  0.000
    76     CG2R61      4     PETL     C5     76    -0.115000    12.0110   ; qtot -0.115
    77      HGR61      4     PETL    H51     77     0.115000     1.0080   ; qtot  0.000
    78     CG2R61      4     PETL     C6     78    -0.115000    12.0110   ; qtot -0.115
    79      HGR61      4     PETL    H61     79     0.115000     1.0080   ; qtot  0.000
    80     CG2R61      4     PETL     C7     80     0.090000    12.0110   ; qtot  0.090
    81      CG2O2      4     PETL     C8     81     0.770000    12.0110   ; qtot  0.860
    82      OG302      4     PETL     O3     82    -0.490000    15.9994   ; qtot  0.370
    83      OG2D1      4     PETL     O4     83    -0.630000    15.9994   ; qtot -0.260
    84      CG321      4     PETL     C9     84     0.080000    12.0110   ; qtot -0.180
    85       HGA2      4     PETL    H91     85     0.090000     1.0080   ; qtot -0.090
    86       HGA2      4     PETL    H92     86     0.090000     1.0080   ; qtot  0.000
    87      CG321      4     PETL    C10     87     0.050000    12.0110   ; qtot  0.050
    88       HGA2      4     PETL    HX1     88     0.090000     1.0080   ; qtot  0.140
    89       HGA2      4     PETL    HX2     89     0.090000     1.0080   ; qtot  0.230
    90       HGP1      4     PETL    HZ1     90     0.420000     1.0080   ; qtot  0.650
    91      OG311      4     PETL     OZ     91    -0.650000    15.9994   ; qtot  0.000

[ bonds ]
; ai	aj	funct	b0	Kb
    1     2     1
    3     2     1
    3     4     1
    3     5     1
    8     5     1
    5    10     1
    6     7     1
    6     8     1
    6    14     1
    8     9     1
   10    11     1
   10    12     1
   12    13     1
   12    14     1
   15    14     1
   15    16     1
   15    17     1
   18    16     1
   18    19     1
   18    20     1
   18    21     1
   21    22     1
   21    23     1
   21    24     1
   25    24     1
   25    26     1
   25    27     1
   30    27     1
   27    32     1
   28    29     1
   28    30     1
   28    36     1
   30    31     1
   32    33     1
   32    34     1
   34    35     1
   34    36     1
   37    36     1
   37    38     1
   37    39     1
   40    38     1
   40    41     1
   40    42     1
   40    43     1
   43    44     1
   43    45     1
   43    46     1
   47    46     1
   47    48     1
   47    49     1
   52    49     1
   49    54     1
   50    51     1
   50    52     1
   50    58     1
   52    53     1
   54    55     1
   54    56     1
   56    57     1
   56    58     1
   59    58     1
   59    60     1
   59    61     1
   62    60     1
   62    63     1
   62    64     1
   62    65     1
   65    66     1
   65    67     1
   65    68     1
   69    68     1
   69    70     1
   69    71     1
   74    71     1
   71    76     1
   72    73     1
   72    74     1
   72    80     1
   74    75     1
   76    77     1
   76    78     1
   78    79     1
   78    80     1
   81    80     1
   81    82     1
   81    83     1
   84    82     1
   84    85     1
   84    86     1
   84    87     1
   87    88     1
   87    89     1
   87    91     1
   90    91     1

[ pairs ]
; ai	aj	funct	c6	c12 or
; ai	aj	funct	fudgeQQ	q1	q2	c6	c12
    1     4     1
    1     5     1
    2     8     1
    2    10     1
    3     6     1
    3     9     1
    3    11     1
    3    12     1
    4     8     1
    4    10     1
    5     7     1
    5    13     1
    5    14     1
    6    10     1
    6    13     1
    6    16     1
    6    17     1
    7     9     1
    7    12     1
    7    15     1
    8    11     1
    8    12     1
    8    15     1
    9    10     1
    9    14     1
   10    15     1
   11    13     1
   11    14     1
   12    16     1
   12    17     1
   13    15     1
   14    18     1
   15    19     1
   15    20     1
   15    21     1
   16    22     1
   16    23     1
   17    18     1
   19    22     1
   19    23     1
   20    22     1
   20    23     1
   21    26     1
   21    27     1
   22    25     1
   23    25     1
   24    30     1
   24    32     1
   25    28     1
   25    31     1
   25    33     1
   25    34     1
   26    30     1
   26    32     1
   27    29     1
   27    35     1
   27    36     1
   28    32     1
   28    35     1
   28    38     1
   28    39     1
   29    31     1
   29    34     1
   29    37     1
   30    33     1
   30    34     1
   30    37     1
   31    32     1
   31    36     1
   32    37     1
   33    35     1
   33    36     1
   34    38     1
   34    39     1
   35    37     1
   36    40     1
   37    41     1
   37    42     1
   37    43     1
   38    44     1
   38    45     1
   39    40     1
   41    44     1
   41    45     1
   42    44     1
   42    45     1
   43    48     1
   43    49     1
   44    47     1
   45    47     1
   46    52     1
   46    54     1
   47    50     1
   47    53     1
   47    55     1
   47    56     1
   48    52     1
   48    54     1
   49    51     1
   49    57     1
   49    58     1
   50    54     1
   50    57     1
   50    60     1
   50    61     1
   51    53     1
   51    56     1
   51    59     1
   52    55     1
   52    56     1
   52    59     1
   53    54     1
   53    58     1
   54    59     1
   55    57     1
   55    58     1
   56    60     1
   56    61     1
   57    59     1
   58    62     1
   59    63     1
   59    64     1
   59    65     1
   60    66     1
   60    67     1
   61    62     1
   63    66     1
   63    67     1
   64    66     1
   64    67     1
   65    70     1
   65    71     1
   66    69     1
   67    69     1
   68    74     1
   68    76     1
   69    72     1
   69    75     1
   69    77     1
   69    78     1
   70    74     1
   70    76     1
   71    73     1
   71    79     1
   71    80     1
   72    76     1
   72    79     1
   72    82     1
   72    83     1
   73    75     1
   73    78     1
   73    81     1
   74    77     1
   74    78     1
   74    81     1
   75    76     1
   75    80     1
   76    81     1
   77    79     1
   77    80     1
   78    82     1
   78    83     1
   79    81     1
   80    84     1
   81    85     1
   81    86     1
   81    87     1
   82    88     1
   82    89     1
   82    91     1
   83    84     1
   84    90     1
   85    88     1
   85    89     1
   85    91     1
   86    88     1
   86    89     1
   86    91     1
   88    90     1
   89    90     1

[ angles ] 
; ai	aj	ak	funct	th0	cth	S0	Kub
    1     2     3     5
    2     3     4     5
    2     3     5     5
    4     3     5     5
    3     5     8     5
    3     5    10     5
    8     5    10     5
    7     6     8     5
    7     6    14     5
    8     6    14     5
    5     8     6     5
    5     8     9     5
    6     8     9     5
    5    10    11     5
    5    10    12     5
   11    10    12     5
   10    12    13     5
   10    12    14     5
   13    12    14     5
    6    14    12     5
    6    14    15     5
   12    14    15     5
   14    15    16     5
   14    15    17     5
   16    15    17     5
   15    16    18     5
   16    18    19     5
   16    18    20     5
   16    18    21     5
   19    18    20     5
   19    18    21     5
   20    18    21     5
   18    21    22     5
   18    21    23     5
   22    21    23     5
   22    21    24     5
   23    21    24     5
   21    24    25     5
   24    25    26     5
   24    25    27     5
   26    25    27     5
   25    27    30     5
   25    27    32     5
   30    27    32     5
   29    28    30     5
   29    28    36     5
   30    28    36     5
   27    30    28     5
   27    30    31     5
   28    30    31     5
   27    32    33     5
   27    32    34     5
   33    32    34     5
   32    34    35     5
   32    34    36     5
   35    34    36     5
   28    36    34     5
   28    36    37     5
   34    36    37     5
   36    37    38     5
   36    37    39     5
   38    37    39     5
   37    38    40     5
   38    40    41     5
   38    40    42     5
   38    40    43     5
   41    40    42     5
   41    40    43     5
   42    40    43     5
   40    43    44     5
   40    43    45     5
   44    43    45     5
   44    43    46     5
   45    43    46     5
   43    46    47     5
   46    47    48     5
   46    47    49     5
   48    47    49     5
   47    49    52     5
   47    49    54     5
   52    49    54     5
   51    50    52     5
   51    50    58     5
   52    50    58     5
   49    52    50     5
   49    52    53     5
   50    52    53     5
   49    54    55     5
   49    54    56     5
   55    54    56     5
   54    56    57     5
   54    56    58     5
   57    56    58     5
   50    58    56     5
   50    58    59     5
   56    58    59     5
   58    59    60     5
   58    59    61     5
   60    59    61     5
   59    60    62     5
   60    62    63     5
   60    62    64     5
   60    62    65     5
   63    62    64     5
   63    62    65     5
   64    62    65     5
   62    65    66     5
   62    65    67     5
   66    65    67     5
   66    65    68     5
   67    65    68     5
   65    68    69     5
   68    69    70     5
   68    69    71     5
   70    69    71     5
   69    71    74     5
   69    71    76     5
   74    71    76     5
   73    72    74     5
   73    72    80     5
   74    72    80     5
   71    74    72     5
   71    74    75     5
   72    74    75     5
   71    76    77     5
   71    76    78     5
   77    76    78     5
   76    78    79     5
   76    78    80     5
   79    78    80     5
   72    80    78     5
   72    80    81     5
   78    80    81     5
   80    81    82     5
   80    81    83     5
   82    81    83     5
   81    82    84     5
   82    84    85     5
   82    84    86     5
   82    84    87     5
   85    84    86     5
   85    84    87     5
   86    84    87     5
   84    87    88     5
   84    87    89     5
   84    87    91     5
   88    87    89     5
   88    87    91     5
   89    87    91     5
   87    91    90     5

[ dihedrals ]
; ai	aj	ak	al	funct	phi0	cp	mult
    1     2     3     4     9
    1     2     3     5     9
    2     3     5     8     9
    2     3     5    10     9
    4     3     5     8     9
    4     3     5    10     9
    3     5     8     6     9
    3     5     8     9     9
    3     5    10    11     9
    3     5    10    12     9
    8     5    10    11     9
    8     5    10    12     9
    7     6     8     9     9
    7     6    14    12     9
    7     6    14    15     9
    8     6    14    12     9
    8     6    14    15     9
    6     8     5    10     9
    9     8     5    10     9
    5     8     6     7     9
    5     8     6    14     9
    9     8     6    14     9
    5    10    12    13     9
    5    10    12    14     9
   11    10    12    13     9
   11    10    12    14     9
   10    12    14    15     9
   13    12    14    15     9
    6    14    12    10     9
    6    14    12    13     9
    6    14    15    16     9
    6    14    15    17     9
   12    14    15    16     9
   12    14    15    17     9
   14    15    16    18     9
   17    15    16    18     9
   15    16    18    19     9
   15    16    18    20     9
   15    16    18    21     9
   16    18    21    22     9
   16    18    21    23     9
   19    18    21    22     9
   19    18    21    23     9
   20    18    21    22     9
   20    18    21    23     9
   22    21    24    25     9
   23    21    24    25     9
   21    24    25    26     9
   21    24    25    27     9
   24    25    27    30     9
   24    25    27    32     9
   26    25    27    30     9
   26    25    27    32     9
   25    27    30    28     9
   25    27    30    31     9
   25    27    32    33     9
   25    27    32    34     9
   30    27    32    33     9
   30    27    32    34     9
   29    28    30    31     9
   29    28    36    34     9
   29    28    36    37     9
   30    28    36    34     9
   30    28    36    37     9
   28    30    27    32     9
   31    30    27    32     9
   27    30    28    29     9
   27    30    28    36     9
   31    30    28    36     9
   27    32    34    35     9
   27    32    34    36     9
   33    32    34    35     9
   33    32    34    36     9
   32    34    36    37     9
   35    34    36    37     9
   28    36    34    32     9
   28    36    34    35     9
   28    36    37    38     9
   28    36    37    39     9
   34    36    37    38     9
   34    36    37    39     9
   36    37    38    40     9
   39    37    38    40     9
   37    38    40    41     9
   37    38    40    42     9
   37    38    40    43     9
   38    40    43    44     9
   38    40    43    45     9
   41    40    43    44     9
   41    40    43    45     9
   42    40    43    44     9
   42    40    43    45     9
   44    43    46    47     9
   45    43    46    47     9
   43    46    47    48     9
   43    46    47    49     9
   46    47    49    52     9
   46    47    49    54     9
   48    47    49    52     9
   48    47    49    54     9
   47    49    52    50     9
   47    49    52    53     9
   47    49    54    55     9
   47    49    54    56     9
   52    49    54    55     9
   52    49    54    56     9
   51    50    52    53     9
   51    50    58    56     9
   51    50    58    59     9
   52    50    58    56     9
   52    50    58    59     9
   50    52    49    54     9
   53    52    49    54     9
   49    52    50    51     9
   49    52    50    58     9
   53    52    50    58     9
   49    54    56    57     9
   49    54    56    58     9
   55    54    56    57     9
   55    54    56    58     9
   54    56    58    59     9
   57    56    58    59     9
   50    58    56    54     9
   50    58    56    57     9
   50    58    59    60     9
   50    58    59    61     9
   56    58    59    60     9
   56    58    59    61     9
   58    59    60    62     9
   61    59    60    62     9
   59    60    62    63     9
   59    60    62    64     9
   59    60    62    65     9
   60    62    65    66     9
   60    62    65    67     9
   63    62    65    66     9
   63    62    65    67     9
   64    62    65    66     9
   64    62    65    67     9
   66    65    68    69     9
   67    65    68    69     9
   65    68    69    70     9
   65    68    69    71     9
   68    69    71    74     9
   68    69    71    76     9
   70    69    71    74     9
   70    69    71    76     9
   69    71    74    72     9
   69    71    74    75     9
   69    71    76    77     9
   69    71    76    78     9
   74    71    76    77     9
   74    71    76    78     9
   73    72    74    75     9
   73    72    80    78     9
   73    72    80    81     9
   74    72    80    78     9
   74    72    80    81     9
   72    74    71    76     9
   75    74    71    76     9
   71    74    72    73     9
   71    74    72    80     9
   75    74    72    80     9
   71    76    78    79     9
   71    76    78    80     9
   77    76    78    79     9
   77    76    78    80     9
   76    78    80    81     9
   79    78    80    81     9
   72    80    78    76     9
   72    80    78    79     9
   72    80    81    82     9
   72    80    81    83     9
   78    80    81    82     9
   78    80    81    83     9
   80    81    82    84     9
   83    81    82    84     9
   81    82    84    85     9
   81    82    84    86     9
   81    82    84    87     9
   82    84    87    88     9
   82    84    87    89     9
   82    84    87    91     9
   85    84    87    88     9
   85    84    87    89     9
   85    84    87    91     9
   86    84    87    88     9
   86    84    87    89     9
   86    84    87    91     9
   84    87    91    90     9
   88    87    91    90     9
   89    87    91    90     9

[ dihedrals ]
; ai	aj	ak	al	funct	q0	cq
    3     5     4     2     2
   15    14    17    16     2
   25    27    26    24     2
   37    36    39    38     2
   47    49    48    46     2
   59    58    61    60     2
   69    71    70    68     2
   81    80    83    82     2

#ifdef POSRES
[ position_restraints ]
    2     1    POSRES_FC_BB    POSRES_FC_BB    POSRES_FC_BB   
    3     1    POSRES_FC_BB    POSRES_FC_BB    POSRES_FC_BB   
    4     1    POSRES_FC_BB    POSRES_FC_BB    POSRES_FC_BB   
    5     1    POSRES_FC_BB    POSRES_FC_BB    POSRES_FC_BB   
    6     1    POSRES_FC_BB    POSRES_FC_BB    POSRES_FC_BB   
    8     1    POSRES_FC_BB    POSRES_FC_BB    POSRES_FC_BB   
   10     1    POSRES_FC_BB    POSRES_FC_BB    POSRES_FC_BB   
   12     1    POSRES_FC_BB    POSRES_FC_BB    POSRES_FC_BB   
   14     1    POSRES_FC_BB    POSRES_FC_BB    POSRES_FC_BB   
   15     1    POSRES_FC_BB    POSRES_FC_BB    POSRES_FC_BB   
   16     1    POSRES_FC_BB    POSRES_FC_BB    POSRES_FC_BB   
   17     1    POSRES_FC_BB    POSRES_FC_BB    POSRES_FC_BB   
   18     1    POSRES_FC_BB    POSRES_FC_BB    POSRES_FC_BB   
   21     1    POSRES_FC_BB    POSRES_FC_BB    POSRES_FC_BB   
   24     1    POSRES_FC_BB    POSRES_FC_BB    POSRES_FC_BB   
   25     1    POSRES_FC_BB    POSRES_FC_BB    POSRES_FC_BB   
   26     1    POSRES_FC_BB    POSRES_FC_BB    POSRES_FC_BB   
   27     1    POSRES_FC_BB    POSRES_FC_BB    POSRES_FC_BB   
   28     1    POSRES_FC_BB    POSRES_FC_BB    POSRES_FC_BB   
   30     1    POSRES_FC_BB    POSRES_FC_BB    POSRES_FC_BB   
   32     1    POSRES_FC_BB    POSRES_FC_BB    POSRES_FC_BB   
   34     1    POSRES_FC_BB    POSRES_FC_BB    POSRES_FC_BB   
   36     1    POSRES_FC_BB    POSRES_FC_BB    POSRES_FC_BB   
   37     1    POSRES_FC_BB    POSRES_FC_BB    POSRES_FC_BB   
   38     1    POSRES_FC_BB    POSRES_FC_BB    POSRES_FC_BB   
   39     1    POSRES_FC_BB    POSRES_FC_BB    POSRES_FC_BB   
   40     1    POSRES_FC_BB    POSRES_FC_BB    POSRES_FC_BB   
   43     1    POSRES_FC_BB    POSRES_FC_BB    POSRES_FC_BB   
   46     1    POSRES_FC_BB    POSRES_FC_BB    POSRES_FC_BB   
   47     1    POSRES_FC_BB    POSRES_FC_BB    POSRES_FC_BB   
   48     1    POSRES_FC_BB    POSRES_FC_BB    POSRES_FC_BB   
   49     1    POSRES_FC_BB    POSRES_FC_BB    POSRES_FC_BB   
   50     1    POSRES_FC_BB    POSRES_FC_BB    POSRES_FC_BB   
   52     1    POSRES_FC_BB    POSRES_FC_BB    POSRES_FC_BB   
   54     1    POSRES_FC_BB    POSRES_FC_BB    POSRES_FC_BB   
   56     1    POSRES_FC_BB    POSRES_FC_BB    POSRES_FC_BB   
   58     1    POSRES_FC_BB    POSRES_FC_BB    POSRES_FC_BB   
   59     1    POSRES_FC_BB    POSRES_FC_BB    POSRES_FC_BB   
   60     1    POSRES_FC_BB    POSRES_FC_BB    POSRES_FC_BB   
   61     1    POSRES_FC_BB    POSRES_FC_BB    POSRES_FC_BB   
   62     1    POSRES_FC_BB    POSRES_FC_BB    POSRES_FC_BB   
   65     1    POSRES_FC_BB    POSRES_FC_BB    POSRES_FC_BB   
   68     1    POSRES_FC_BB    POSRES_FC_BB    POSRES_FC_BB   
   69     1    POSRES_FC_BB    POSRES_FC_BB    POSRES_FC_BB   
   70     1    POSRES_FC_BB    POSRES_FC_BB    POSRES_FC_BB   
   71     1    POSRES_FC_BB    POSRES_FC_BB    POSRES_FC_BB   
   72     1    POSRES_FC_BB    POSRES_FC_BB    POSRES_FC_BB   
   74     1    POSRES_FC_BB    POSRES_FC_BB    POSRES_FC_BB   
   76     1    POSRES_FC_BB    POSRES_FC_BB    POSRES_FC_BB   
   78     1    POSRES_FC_BB    POSRES_FC_BB    POSRES_FC_BB   
   80     1    POSRES_FC_BB    POSRES_FC_BB    POSRES_FC_BB   
   81     1    POSRES_FC_BB    POSRES_FC_BB    POSRES_FC_BB   
   82     1    POSRES_FC_BB    POSRES_FC_BB    POSRES_FC_BB   
   83     1    POSRES_FC_BB    POSRES_FC_BB    POSRES_FC_BB   
   84     1    POSRES_FC_BB    POSRES_FC_BB    POSRES_FC_BB   
   87     1    POSRES_FC_BB    POSRES_FC_BB    POSRES_FC_BB   
   91     1    POSRES_FC_BB    POSRES_FC_BB    POSRES_FC_BB   
#endif
