integrator              = md
dt                      = 0.002
nsteps                  = 10000000
nstxout-compressed      = 5000
nstenergy               = 2000
nstlog                  = 2000
cutoff-scheme           = Verlet
nstlist                 = 20
rlist                   = 1.2
vdwtype                 = Cut-off
vdw-modifier            = Force-switch
rvdw_switch             = 1.0
rvdw                    = 1.2
coulombtype             = PME
rcoulomb                = 1.2
tcoupl                  = v-rescale
tc-grps                 = System
tau_t                   = 1.0
ref_t                   = 300
pcoupl                  = Parrinello-Rahman
pcoupltype              = isotropic
tau_p                   = 5.0
compressibility         = 4.5e-5
ref_p                   = 1.0
constraints             = h-bonds
constraint_algorithm    = LINCS
continuation            = yes
gen-vel                 = no
pbc                     = xyz
