integrator              = md
dt                      = 0.002
nsteps                  = 50000
nstxout-compressed      = 2000
nstenergy               = 1000
nstlog                  = 1000
cutoff-scheme           = Verlet
nstlist                 = 20
rlist                   = 1.2
vdwtype                 = Cut-off
vdw-modifier            = Force-switch
rvdw_switch             = 1.0
rvdw                    = 1.2
coulombtype             = PME
rcoulomb                = 1.2
tcoupl                  = v-rescale
tc-grps                 = System
tau_t                   = 1.0
ref_t                   = 300
constraints             = h-bonds
constraint_algorithm    = LINCS
continuation            = no
gen-vel                 = yes
gen-temp                = 300
gen-seed                = 20260305
pcoupl                  = no
pbc                     = xyz
