;;
;; Generated by CHARMM-GUI FF-Converter
;;
;; Correspondance:
;; jul316@lehigh.edu or wonpil@lehigh.edu
;;
;; CHARMM FF in GROMACS format
;;


[ atomtypes ]
; name	at.num	mass	charge	ptype	sigma	epsilon	;	sigma_14	epsilon_14

[ bondtypes ]
; i	j	func	b0	Kb

[ pairtypes ]
; i	j	func	sigma1-4	epsilon1-4

[ angletypes ]
; i	j	k	func	th0	Kth	s0	Kub

[ dihedraltypes ]
; i	j	k	l	func	phi0	Kphi	mult
 CG2R61   CG2O2   OG302   CG321     9  1.800000e+02  6.276000e+00      2
  OG302   CG321   CG321   OG311     9  0.000000e+00  8.368000e-01      3

[ dihedraltypes ]
; i	j	k	l	func	q0	Kq
