frame t= 25100.000
  223
    1PETL   H11    1  -0.623   0.547  -0.796
    1PETL    O1    2  -0.713   0.535  -0.768
    1PETL    C1    3  -0.729   0.566  -0.641
    1PETL    O2    4  -0.653   0.650  -0.587
    1PETL    C2    5  -0.860   0.517  -0.581
    1PETL    C3    6  -1.010   0.541  -0.386
    1PETL   H31    7  -1.016   0.585  -0.287
    1PETL    C4    8  -0.892   0.578  -0.460
    1PETL   H41    9  -0.816   0.636  -0.412
    1PETL    C5   10  -0.949   0.427  -0.639
    1PETL   H51   11  -0.928   0.391  -0.738
    1PETL    C6   12  -1.073   0.394  -0.569
    1PETL   H61   13  -1.143   0.322  -0.608
    1PETL    C7   14  -1.104   0.448  -0.442
    1PETL    C8   15  -1.230   0.417  -0.361
    1PETL    O3   16  -1.318   0.325  -0.410
    1PETL    O4   17  -1.251   0.482  -0.261
    1PETL    C9   18  -1.414   0.269  -0.317
    1PETL   H91   19  -1.372   0.234  -0.221
    1PETL   H92   20  -1.504   0.334  -0.310
    1PETL   C10   21  -1.446   0.128  -0.366
    1PETL   HX1   22  -1.481   0.113  -0.470
    1PETL   HX2   23  -1.479   0.064  -0.281
    2PETL    O1   24  -1.307   0.164  -0.368
    2PETL    C1   25  -1.235   0.061  -0.425
    2PETL    O2   26  -1.289  -0.030  -0.481
    2PETL    C2   27  -1.081   0.087  -0.424
    2PETL    C3   28  -0.877   0.081  -0.548
    2PETL   H31   29  -0.831   0.073  -0.645
    2PETL    C4   30  -1.014   0.043  -0.539
    2PETL   H41   31  -1.060  -0.022  -0.610
    2PETL    C5   32  -1.018   0.158  -0.326
    2PETL   H51   33  -1.080   0.199  -0.247
    2PETL    C6   34  -0.887   0.198  -0.342
    2PETL   H61   35  -0.848   0.272  -0.272
    2PETL    C7   36  -0.817   0.170  -0.461
    2PETL    C8   37  -0.686   0.236  -0.486
    2PETL    O3   38  -0.616   0.179  -0.583
    2PETL    O4   39  -0.647   0.331  -0.426
    2PETL    C9   40  -0.476   0.226  -0.578
    2PETL   H91   41  -0.457   0.324  -0.626
    2PETL   H92   42  -0.433   0.235  -0.476
    2PETL   C10   43  -0.401   0.120  -0.668
    2PETL   HX1   44  -0.294   0.116  -0.637
    2PETL   HX2   45  -0.435   0.112  -0.772
    3PETL    O1   46  -0.495   0.076  -0.564
    3PETL    C1   47  -0.501  -0.054  -0.576
    3PETL    O2   48  -0.460  -0.122  -0.668
    3PETL    C2   49  -0.577  -0.116  -0.455
    3PETL    C3   50  -0.687  -0.303  -0.338
    3PETL   H31   51  -0.715  -0.408  -0.336
    3PETL    C4   52  -0.629  -0.248  -0.456
    3PETL   H41   53  -0.619  -0.309  -0.545
    3PETL    C5   54  -0.601  -0.033  -0.344
    3PETL   H51   55  -0.560   0.066  -0.332
    3PETL    C6   56  -0.653  -0.091  -0.228
    3PETL   H61   57  -0.656  -0.030  -0.139
    3PETL    C7   58  -0.695  -0.223  -0.224
    3PETL    C8   59  -0.735  -0.267  -0.086
    3PETL    O3   60  -0.756  -0.401  -0.072
    3PETL    O4   61  -0.740  -0.196   0.012
    3PETL    C9   62  -0.784  -0.451   0.063
    3PETL   H91   63  -0.690  -0.437   0.120
    3PETL   H92   64  -0.873  -0.407   0.111
    3PETL   C10   65  -0.806  -0.597   0.051
    3PETL   HX1   66  -0.902  -0.620  -0.002
    3PETL   HX2   67  -0.767  -0.661   0.133
    4PETL    O1   68  -0.707  -0.553  -0.045
    4PETL    C1   69  -0.648  -0.656  -0.096
    4PETL    O2   70  -0.676  -0.774  -0.078
    4PETL    C2   71  -0.549  -0.615  -0.203
    4PETL    C3   72  -0.467  -0.648  -0.435
    4PETL   H31   73  -0.458  -0.716  -0.517
    4PETL    C4   74  -0.542  -0.689  -0.322
    4PETL   H41   75  -0.595  -0.782  -0.336
    4PETL    C5   76  -0.470  -0.499  -0.198
    4PETL   H51   77  -0.485  -0.435  -0.112
    4PETL    C6   78  -0.399  -0.456  -0.310
    4PETL   H61   79  -0.337  -0.369  -0.292
    4PETL    C7   80  -0.393  -0.532  -0.427
    4PETL    C8   81  -0.306  -0.494  -0.542
    4PETL    O3   82  -0.241  -0.377  -0.525
    4PETL    O4   83  -0.285  -0.567  -0.637
    4PETL    C9   84  -0.193  -0.324  -0.651
    4PETL   H91   85  -0.120  -0.401  -0.684
    4PETL   H92   86  -0.281  -0.314  -0.717
    4PETL   C10   87  -0.135  -0.191  -0.626
    4PETL   HX1   88  -0.203  -0.113  -0.585
    4PETL   HX2   89  -0.038  -0.154  -0.666
    5PETL    O1   90  -0.112  -0.299  -0.534
    5PETL    C1   91  -0.039  -0.254  -0.429
    5PETL    O2   92   0.005  -0.140  -0.425
    5PETL    C2   93  -0.043  -0.348  -0.314
    5PETL    C3   94  -0.058  -0.565  -0.206
    5PETL   H31   95  -0.052  -0.672  -0.221
    5PETL    C4   96  -0.038  -0.488  -0.327
    5PETL   H41   97  -0.039  -0.528  -0.427
    5PETL    C5   98  -0.050  -0.291  -0.182
    5PETL   H51   99  -0.054  -0.184  -0.173
    5PETL    C6  100  -0.082  -0.372  -0.073
    5PETL   H61  101  -0.105  -0.321   0.019
    5PETL    C7  102  -0.073  -0.509  -0.079
    5PETL    C8  103  -0.080  -0.609   0.039
    5PETL    O3  104  -0.085  -0.540   0.150
    5PETL    O4  105  -0.081  -0.733   0.020
    5PETL    C9  106  -0.147  -0.618   0.259
    5PETL   H91  107  -0.224  -0.555   0.305
    5PETL   H92  108  -0.204  -0.712   0.241
    5PETL   C10  109  -0.019  -0.652   0.337
    5PETL   HX1  110   0.040  -0.744   0.314
    5PETL   HX2  111  -0.037  -0.641   0.446
    6PETL    O1  112   0.050  -0.546   0.266
    6PETL    C1  113   0.054  -0.431   0.334
    6PETL    O2  114  -0.013  -0.406   0.435
    6PETL    C2  115   0.138  -0.328   0.262
    6PETL    C3  116   0.304  -0.257   0.096
    6PETL   H31  117   0.374  -0.285   0.019
    6PETL    C4  118   0.244  -0.355   0.174
    6PETL   H41  119   0.271  -0.457   0.151
    6PETL    C5  120   0.090  -0.193   0.270
    6PETL   H51  121   0.010  -0.163   0.336
    6PETL    C6  122   0.154  -0.091   0.193
    6PETL   H61  123   0.134   0.014   0.211
    6PETL    C7  124   0.260  -0.126   0.107
    6PETL    C8  125   0.317  -0.011   0.022
    6PETL    O3  126   0.435  -0.036  -0.032
    6PETL    O4  127   0.255   0.093   0.001
    6PETL    C9  128   0.485   0.077  -0.112
    6PETL   H91  129   0.422   0.097  -0.201
    6PETL   H92  130   0.476   0.172  -0.054
    6PETL   C10  131   0.629   0.052  -0.160
    6PETL   HX1  132   0.697   0.138  -0.149
    6PETL   HX2  133   0.640  -0.030  -0.235
    7PETL    O1  134   0.602  -0.001  -0.028
    7PETL    C1  135   0.640   0.051   0.079
    7PETL    O2  136   0.686   0.163   0.094
    7PETL    C2  137   0.626  -0.036   0.199
    7PETL    C3  138   0.607  -0.077   0.436
    7PETL   H31  139   0.596  -0.036   0.535
    7PETL    C4  140   0.620   0.012   0.326
    7PETL   H41  141   0.623   0.119   0.340
    7PETL    C5  142   0.627  -0.174   0.186
    7PETL   H51  143   0.627  -0.225   0.091
    7PETL    C6  144   0.620  -0.264   0.294
    7PETL   H61  145   0.626  -0.372   0.283
    7PETL    C7  146   0.615  -0.214   0.424
    7PETL    C8  147   0.609  -0.311   0.534
    7PETL    O3  148   0.631  -0.254   0.648
    7PETL    O4  149   0.597  -0.430   0.510
    7PETL    C9  150   0.664  -0.361   0.743
    7PETL   H91  151   0.591  -0.442   0.763
    7PETL   H92  152   0.758  -0.412   0.713
    7PETL   C10  153   0.693  -0.293   0.872
    7PETL   HX1  154   0.768  -0.342   0.939
    7PETL   HX2  155   0.614  -0.232   0.923
    8PETL    O1  156   0.752  -0.233   0.758
    8PETL    C1  157   0.847  -0.136   0.791
    8PETL    O2  158   0.859  -0.092   0.908
    8PETL    C2  159   0.921  -0.076   0.665
    8PETL    C3  160   0.997  -0.090   0.440
    8PETL   H31  161   1.002  -0.137   0.343
    8PETL    C4  162   0.947  -0.150   0.553
    8PETL   H41  163   0.908  -0.251   0.549
    8PETL    C5  164   0.966   0.060   0.666
    8PETL   H51  165   0.952   0.124   0.752
    8PETL    C6  166   1.038   0.120   0.563
    8PETL   H61  167   1.067   0.223   0.576
    8PETL    C7  168   1.053   0.039   0.444
    8PETL    C8  169   1.095   0.108   0.322
    8PETL    O3  170   1.130   0.243   0.337
    8PETL    O4  171   1.102   0.046   0.217
    8PETL    C9  172   1.196   0.285   0.211
    8PETL   H91  173   1.286   0.222   0.193
    8PETL   H92  174   1.125   0.268   0.127
    8PETL   C10  175   1.233   0.430   0.248
    8PETL   HX1  176   1.212   0.502   0.166
    8PETL   HX2  177   1.322   0.445   0.313
    9PETL    O1  178   1.121   0.385   0.331
    9PETL    C1  179   1.084   0.498   0.393
    9PETL    O2  180   1.153   0.597   0.401
    9PETL    C2  181   0.950   0.479   0.471
    9PETL    C3  182   0.744   0.360   0.518
    9PETL   H31  183   0.677   0.276   0.507
    9PETL    C4  184   0.860   0.372   0.449
    9PETL   H41  185   0.888   0.303   0.372
    9PETL    C5  186   0.908   0.583   0.555
    9PETL   H51  187   0.977   0.664   0.578
    9PETL    C6  188   0.794   0.563   0.630
    9PETL   H61  189   0.763   0.640   0.699
    9PETL    C7  190   0.707   0.463   0.612
    9PETL    C8  191   0.582   0.459   0.703
    9PETL    O3  192   0.488   0.368   0.676
    9PETL    O4  193   0.572   0.540   0.793
    9PETL    C9  194   0.383   0.375   0.776
    9PETL   H91  195   0.415   0.342   0.877
    9PETL   H92  196   0.351   0.481   0.788
    9PETL   C10  197   0.272   0.287   0.741
    9PETL   HX1  198   0.173   0.340   0.741
    9PETL   HX2  199   0.291   0.179   0.743
   10PETL    O1  200   0.344   0.338   0.618
   10PETL    C1  201   0.273   0.293   0.513
   10PETL    O2  202   0.189   0.205   0.520
   10PETL    C2  203   0.310   0.369   0.383
   10PETL    C3  204   0.304   0.358   0.136
   10PETL   H31  205   0.250   0.319   0.051
   10PETL    C4  206   0.245   0.333   0.265
   10PETL   H41  207   0.155   0.275   0.266
   10PETL    C5  208   0.422   0.446   0.371
   10PETL   H51  209   0.474   0.486   0.456
   10PETL    C6  210   0.468   0.494   0.244
   10PETL   H61  211   0.545   0.568   0.234
   10PETL    C7  212   0.416   0.436   0.128
   10PETL    C8  213   0.485   0.467  -0.009
   10PETL    O3  214   0.414   0.423  -0.117
   10PETL    O4  215   0.597   0.520  -0.020
   10PETL    C9  216   0.486   0.417  -0.246
   10PETL   H91  217   0.595   0.404  -0.225
   10PETL   H92  218   0.453   0.327  -0.301
   10PETL   C10  219   0.476   0.557  -0.322
   10PETL   HX1  220   0.548   0.618  -0.265
   10PETL   HX2  221   0.375   0.602  -0.315
   10PETL   HZ1  222   0.484   0.612  -0.497
   10PETL    OZ  223   0.518   0.531  -0.457
  19.79530   9.89760   9.89760
