frame t= 29350.000
  223
    1PETL   H11    1   0.265  -0.117  -1.087
    1PETL    O1    2   0.211  -0.166  -1.024
    1PETL    C1    3   0.081  -0.187  -1.078
    1PETL    O2    4   0.056  -0.131  -1.185
    1PETL    C2    5  -0.019  -0.272  -0.996
    1PETL    C3    6  -0.191  -0.435  -0.972
    1PETL   H31    7  -0.271  -0.492  -1.016
    1PETL    C4    8  -0.124  -0.348  -1.051
    1PETL   H41    9  -0.145  -0.342  -1.157
    1PETL    C5   10   0.014  -0.297  -0.861
    1PETL   H51   11   0.101  -0.247  -0.820
    1PETL    C6   12  -0.070  -0.371  -0.772
    1PETL   H61   13  -0.043  -0.378  -0.668
    1PETL    C7   14  -0.178  -0.443  -0.828
    1PETL    C8   15  -0.278  -0.520  -0.745
    1PETL    O3   16  -0.391  -0.547  -0.810
    1PETL    O4   17  -0.263  -0.535  -0.629
    1PETL    C9   18  -0.496  -0.612  -0.727
    1PETL   H91   19  -0.458  -0.706  -0.682
    1PETL   H92   20  -0.526  -0.556  -0.636
    1PETL   C10   21  -0.611  -0.657  -0.805
    1PETL   HX1   22  -0.701  -0.670  -0.743
    1PETL   HX2   23  -0.598  -0.710  -0.902
    2PETL    O1   24  -0.544  -0.531  -0.789
    2PETL    C1   25  -0.612  -0.430  -0.850
    2PETL    O2   26  -0.704  -0.453  -0.927
    2PETL    C2   27  -0.576  -0.290  -0.818
    2PETL    C3   28  -0.496  -0.134  -0.646
    2PETL   H31   29  -0.447  -0.110  -0.553
    2PETL    C4   30  -0.512  -0.268  -0.691
    2PETL   H41   31  -0.461  -0.344  -0.634
    2PETL    C5   32  -0.631  -0.181  -0.888
    2PETL   H51   33  -0.688  -0.207  -0.975
    2PETL    C6   34  -0.610  -0.050  -0.847
    2PETL   H61   35  -0.647   0.028  -0.911
    2PETL    C7   36  -0.532  -0.022  -0.731
    2PETL    C8   37  -0.527   0.117  -0.694
    2PETL    O3   38  -0.516   0.138  -0.557
    2PETL    O4   39  -0.540   0.208  -0.774
    2PETL    C9   40  -0.534   0.276  -0.521
    2PETL   H91   41  -0.472   0.335  -0.592
    2PETL   H92   42  -0.643   0.295  -0.530
    2PETL   C10   43  -0.462   0.297  -0.392
    2PETL   HX1   44  -0.516   0.370  -0.328
    2PETL   HX2   45  -0.353   0.304  -0.415
    3PETL    O1   46  -0.525   0.168  -0.400
    3PETL    C1   47  -0.541   0.123  -0.277
    3PETL    O2   48  -0.485   0.175  -0.181
    3PETL    C2   49  -0.639   0.000  -0.266
    3PETL    C3   50  -0.804  -0.150  -0.357
    3PETL   H31   51  -0.853  -0.200  -0.440
    3PETL    C4   52  -0.724  -0.040  -0.373
    3PETL   H41   53  -0.711   0.006  -0.470
    3PETL    C5   54  -0.633  -0.082  -0.146
    3PETL   H51   55  -0.579  -0.047  -0.059
    3PETL    C6   56  -0.705  -0.195  -0.140
    3PETL   H61   57  -0.697  -0.271  -0.063
    3PETL    C7   58  -0.799  -0.229  -0.239
    3PETL    C8   59  -0.884  -0.353  -0.229
    3PETL    O3   60  -0.890  -0.403  -0.104
    3PETL    O4   61  -0.934  -0.406  -0.326
    3PETL    C9   62  -0.957  -0.529  -0.107
    3PETL   H91   63  -1.048  -0.529  -0.172
    3PETL   H92   64  -0.888  -0.605  -0.150
    3PETL   C10   65  -0.986  -0.574   0.034
    3PETL   HX1   66  -0.897  -0.624   0.078
    3PETL   HX2   67  -1.089  -0.605   0.062
    4PETL    O1   68  -0.972  -0.427   0.035
    4PETL    C1   69  -0.919  -0.389   0.148
    4PETL    O2   70  -0.897  -0.460   0.244
    4PETL    C2   71  -0.901  -0.244   0.147
    4PETL    C3   72  -0.818  -0.051   0.259
    4PETL   H31   73  -0.758  -0.018   0.342
    4PETL    C4   74  -0.823  -0.190   0.245
    4PETL   H41   75  -0.776  -0.257   0.316
    4PETL    C5   76  -0.958  -0.154   0.045
    4PETL   H51   77  -1.026  -0.186  -0.032
    4PETL    C6   78  -0.940  -0.019   0.056
    4PETL   H61   79  -0.969   0.043  -0.028
    4PETL    C7   80  -0.867   0.041   0.162
    4PETL    C8   81  -0.857   0.186   0.170
    4PETL    O3   82  -0.795   0.227   0.283
    4PETL    O4   83  -0.907   0.255   0.085
    4PETL    C9   84  -0.803   0.375   0.294
    4PETL   H91   85  -0.757   0.426   0.208
    4PETL   H92   86  -0.911   0.398   0.286
    4PETL   C10   87  -0.760   0.414   0.435
    4PETL   HX1   88  -0.826   0.383   0.518
    4PETL   HX2   89  -0.716   0.515   0.448
    5PETL    O1   90  -0.678   0.311   0.380
    5PETL    C1   91  -0.624   0.240   0.479
    5PETL    O2   92  -0.650   0.258   0.599
    5PETL    C2   93  -0.529   0.137   0.417
    5PETL    C3   94  -0.421  -0.073   0.448
    5PETL   H31   95  -0.383  -0.154   0.510
    5PETL    C4   96  -0.486   0.032   0.505
    5PETL   H41   97  -0.517   0.020   0.608
    5PETL    C5   98  -0.494   0.137   0.279
    5PETL   H51   99  -0.533   0.213   0.212
    5PETL    C6  100  -0.426   0.024   0.226
    5PETL   H61  101  -0.399   0.028   0.121
    5PETL    C7  102  -0.389  -0.084   0.312
    5PETL    C8  103  -0.317  -0.202   0.253
    5PETL    O3  104  -0.208  -0.249   0.314
    5PETL    O4  105  -0.359  -0.253   0.150
    5PETL    C9  106  -0.146  -0.370   0.265
    5PETL   H91  107  -0.221  -0.451   0.258
    5PETL   H92  108  -0.089  -0.366   0.170
    5PETL   C10  109  -0.056  -0.407   0.381
    5PETL   HX1  110   0.050  -0.441   0.375
    5PETL   HX2  111  -0.111  -0.456   0.464
    6PETL    O1  112  -0.073  -0.266   0.376
    6PETL    C1  113  -0.043  -0.206   0.490
    6PETL    O2  114  -0.019  -0.272   0.592
    6PETL    C2  115  -0.057  -0.053   0.482
    6PETL    C3  116  -0.120   0.160   0.375
    6PETL   H31  117  -0.151   0.201   0.280
    6PETL    C4  118  -0.103   0.016   0.375
    6PETL   H41  119  -0.117  -0.033   0.279
    6PETL    C5  120  -0.051   0.020   0.607
    6PETL   H51  121  -0.009  -0.028   0.694
    6PETL    C6  122  -0.046   0.156   0.606
    6PETL   H61  123  -0.031   0.201   0.703
    6PETL    C7  124  -0.077   0.234   0.494
    6PETL    C8  125  -0.082   0.388   0.498
    6PETL    O3  126  -0.080   0.439   0.377
    6PETL    O4  127  -0.080   0.455   0.599
    6PETL    C9  128  -0.075   0.578   0.356
    6PETL   H91  129  -0.161   0.619   0.411
    6PETL   H92  130   0.019   0.612   0.404
    6PETL   C10  131  -0.086   0.599   0.210
    6PETL   HX1  132  -0.032   0.691   0.179
    6PETL   HX2  133  -0.177   0.569   0.152
    7PETL    O1  134  -0.001   0.481   0.248
    7PETL    C1  135   0.051   0.412   0.133
    7PETL    O2  136   0.032   0.452   0.019
    7PETL    C2  137   0.120   0.287   0.166
    7PETL    C3  138   0.248   0.138   0.318
    7PETL   H31  139   0.293   0.146   0.416
    7PETL    C4  140   0.172   0.256   0.293
    7PETL   H41  141   0.178   0.338   0.362
    7PETL    C5  142   0.128   0.182   0.072
    7PETL   H51  143   0.092   0.196  -0.029
    7PETL    C6  144   0.197   0.062   0.093
    7PETL   H61  145   0.209  -0.013   0.016
    7PETL    C7  146   0.254   0.040   0.225
    7PETL    C8  147   0.313  -0.098   0.260
    7PETL    O3  148   0.350  -0.163   0.152
    7PETL    O4  149   0.336  -0.140   0.376
    7PETL    C9  150   0.413  -0.294   0.196
    7PETL   H91  151   0.497  -0.278   0.267
    7PETL   H92  152   0.348  -0.370   0.243
    7PETL   C10  153   0.468  -0.367   0.071
    7PETL   HX1  154   0.397  -0.426   0.009
    7PETL   HX2  155   0.564  -0.417   0.097
    8PETL    O1  156   0.480  -0.226   0.034
    8PETL    C1  157   0.570  -0.214  -0.059
    8PETL    O2  158   0.619  -0.306  -0.118
    8PETL    C2  159   0.619  -0.076  -0.095
    8PETL    C3  160   0.610   0.164  -0.053
    8PETL   H31  161   0.576   0.242   0.014
    8PETL    C4  162   0.572   0.033  -0.012
    8PETL   H41  163   0.503   0.026   0.071
    8PETL    C5  164   0.711  -0.052  -0.195
    8PETL   H51  165   0.743  -0.127  -0.264
    8PETL    C6  166   0.759   0.080  -0.221
    8PETL   H61  167   0.830   0.099  -0.300
    8PETL    C7  168   0.709   0.192  -0.150
    8PETL    C8  169   0.762   0.330  -0.174
    8PETL    O3  170   0.729   0.407  -0.069
    8PETL    O4  171   0.829   0.370  -0.272
    8PETL    C9  172   0.777   0.537  -0.062
    8PETL   H91  173   0.888   0.538  -0.055
    8PETL   H92  174   0.748   0.596  -0.150
    8PETL   C10  175   0.717   0.602   0.060
    8PETL   HX1  176   0.610   0.627   0.045
    8PETL   HX2  177   0.787   0.672   0.111
    9PETL    O1  178   0.736   0.464   0.097
    9PETL    C1  179   0.663   0.435   0.208
    9PETL    O2  180   0.583   0.513   0.258
    9PETL    C2  181   0.687   0.297   0.265
    9PETL    C3  182   0.801   0.080   0.274
    9PETL   H31  183   0.882   0.021   0.234
    9PETL    C4  184   0.778   0.204   0.211
    9PETL   H41  185   0.849   0.233   0.135
    9PETL    C5  186   0.600   0.256   0.361
    9PETL   H51  187   0.535   0.332   0.402
    9PETL    C6  188   0.615   0.126   0.423
    9PETL   H61  189   0.550   0.102   0.505
    9PETL    C7  190   0.714   0.042   0.385
    9PETL    C8  191   0.724  -0.085   0.468
    9PETL    O3  192   0.833  -0.162   0.431
    9PETL    O4  193   0.652  -0.117   0.561
    9PETL    C9  194   0.844  -0.279   0.509
    9PETL   H91  195   0.848  -0.242   0.614
    9PETL   H92  196   0.755  -0.344   0.497
    9PETL   C10  197   0.974  -0.345   0.473
    9PETL   HX1  198   0.980  -0.419   0.391
    9PETL   HX2  199   1.044  -0.380   0.553
   10PETL    O1  200   0.994  -0.205   0.443
   10PETL    C1  201   1.119  -0.186   0.397
   10PETL    O2  202   1.191  -0.277   0.353
   10PETL    C2  203   1.142  -0.035   0.386
   10PETL    C3  204   1.203   0.153   0.243
   10PETL   H31  205   1.254   0.186   0.154
   10PETL    C4  206   1.196   0.013   0.264
   10PETL   H41  207   1.222  -0.067   0.196
   10PETL    C5  208   1.101   0.058   0.486
   10PETL   H51  209   1.044   0.024   0.571
   10PETL    C6  210   1.107   0.197   0.466
   10PETL   H61  211   1.056   0.260   0.538
   10PETL    C7  212   1.164   0.244   0.345
   10PETL    C8  213   1.165   0.394   0.310
   10PETL    O3  214   1.067   0.457   0.372
   10PETL    O4  215   1.238   0.448   0.231
   10PETL    C9  216   1.053   0.595   0.348
   10PETL   H91  217   1.135   0.649   0.399
   10PETL   H92  218   1.062   0.625   0.241
   10PETL   C10  219   0.918   0.655   0.395
   10PETL   HX1  220   0.905   0.628   0.502
   10PETL   HX2  221   0.827   0.624   0.339
   10PETL   HZ1  222   1.014   0.821   0.419
   10PETL    OZ  223   0.924   0.801   0.391
  19.80490   9.90240   9.90240
