frame t= 25100.000
  223
    1PETL   H11    1  -0.256   0.481   0.167
    1PETL    O1    2  -0.250   0.401   0.115
    1PETL    C1    3  -0.374   0.339   0.119
    1PETL    O2    4  -0.470   0.399   0.170
    1PETL    C2    5  -0.384   0.196   0.062
    1PETL    C3    6  -0.284  -0.008  -0.032
    1PETL   H31    7  -0.196  -0.063  -0.061
    1PETL    C4    8  -0.274   0.122   0.020
    1PETL   H41    9  -0.174   0.157   0.038
    1PETL    C5   10  -0.510   0.131   0.057
    1PETL   H51   11  -0.596   0.186   0.094
    1PETL    C6   12  -0.524  -0.001   0.002
    1PETL   H61   13  -0.618  -0.053   0.012
    1PETL    C7   14  -0.411  -0.066  -0.051
    1PETL    C8   15  -0.399  -0.214  -0.094
    1PETL    O3   16  -0.520  -0.275  -0.090
    1PETL    O4   17  -0.297  -0.261  -0.134
    1PETL    C9   18  -0.513  -0.410  -0.138
    1PETL   H91   19  -0.521  -0.401  -0.248
    1PETL   H92   20  -0.418  -0.455  -0.102
    1PETL   C10   21  -0.622  -0.479  -0.061
    1PETL   HX1   22  -0.596  -0.512   0.042
    1PETL   HX2   23  -0.666  -0.550  -0.133
    2PETL    O1   24  -0.658  -0.342  -0.096
    2PETL    C1   25  -0.788  -0.318  -0.074
    2PETL    O2   26  -0.868  -0.399  -0.016
    2PETL    C2   27  -0.829  -0.181  -0.124
    2PETL    C3   28  -1.003  -0.003  -0.150
    2PETL   H31   29  -1.103   0.037  -0.137
    2PETL    C4   30  -0.962  -0.131  -0.098
    2PETL   H41   31  -1.019  -0.187  -0.026
    2PETL    C5   32  -0.746  -0.104  -0.211
    2PETL   H51   33  -0.644  -0.135  -0.225
    2PETL    C6   34  -0.797  -0.002  -0.283
    2PETL   H61   35  -0.735   0.048  -0.357
    2PETL    C7   36  -0.917   0.066  -0.240
    2PETL    C8   37  -0.961   0.202  -0.303
    2PETL    O3   38  -0.872   0.251  -0.392
    2PETL    O4   39  -1.068   0.254  -0.275
    2PETL    C9   40  -0.924   0.375  -0.446
    2PETL   H91   41  -1.003   0.362  -0.523
    2PETL   H92   42  -0.955   0.438  -0.360
    2PETL   C10   43  -0.812   0.454  -0.508
    2PETL   HX1   44  -0.728   0.493  -0.446
    2PETL   HX2   45  -0.842   0.509  -0.599
    3PETL    O1   46  -0.802   0.312  -0.537
    3PETL    C1   47  -0.724   0.282  -0.633
    3PETL    O2   48  -0.662   0.370  -0.700
    3PETL    C2   49  -0.706   0.138  -0.661
    3PETL    C3   50  -0.761  -0.095  -0.647
    3PETL   H31   51  -0.822  -0.177  -0.612
    3PETL    C4   52  -0.789   0.037  -0.623
    3PETL   H41   53  -0.874   0.071  -0.567
    3PETL    C5   54  -0.587   0.105  -0.733
    3PETL   H51   55  -0.511   0.172  -0.772
    3PETL    C6   56  -0.555  -0.024  -0.754
    3PETL   H61   57  -0.466  -0.044  -0.812
    3PETL    C7   58  -0.641  -0.132  -0.717
    3PETL    C8   59  -0.603  -0.273  -0.718
    3PETL    O3   60  -0.482  -0.308  -0.762
    3PETL    O4   61  -0.683  -0.359  -0.678
    3PETL    C9   62  -0.463  -0.452  -0.792
    3PETL   H91   63  -0.502  -0.510  -0.706
    3PETL   H92   64  -0.521  -0.487  -0.881
    3PETL   C10   65  -0.312  -0.479  -0.796
    3PETL   HX1   66  -0.261  -0.463  -0.894
    3PETL   HX2   67  -0.283  -0.566  -0.733
    4PETL    O1   68  -0.339  -0.353  -0.724
    4PETL    C1   69  -0.221  -0.302  -0.686
    4PETL    O2   70  -0.113  -0.357  -0.713
    4PETL    C2   71  -0.239  -0.184  -0.605
    4PETL    C3   72  -0.367  -0.065  -0.439
    4PETL   H31   73  -0.444  -0.067  -0.365
    4PETL    C4   74  -0.350  -0.177  -0.519
    4PETL   H41   75  -0.412  -0.265  -0.509
    4PETL    C5   76  -0.149  -0.077  -0.613
    4PETL   H51   77  -0.066  -0.085  -0.680
    4PETL    C6   78  -0.168   0.031  -0.532
    4PETL   H61   79  -0.095   0.109  -0.521
    4PETL    C7   80  -0.282   0.045  -0.447
    4PETL    C8   81  -0.307   0.169  -0.365
    4PETL    O3   82  -0.196   0.217  -0.313
    4PETL    O4   83  -0.420   0.210  -0.344
    4PETL    C9   84  -0.199   0.354  -0.253
    4PETL   H91   85  -0.296   0.401  -0.277
    4PETL   H92   86  -0.178   0.349  -0.144
    4PETL   C10   87  -0.081   0.421  -0.324
    4PETL   HX1   88  -0.026   0.493  -0.260
    4PETL   HX2   89  -0.070   0.427  -0.434
    5PETL    O1   90  -0.057   0.289  -0.273
    5PETL    C1   91   0.066   0.250  -0.297
    5PETL    O2   92   0.151   0.321  -0.353
    5PETL    C2   93   0.100   0.103  -0.268
    5PETL    C3   94   0.278  -0.069  -0.261
    5PETL   H31   95   0.377  -0.104  -0.286
    5PETL    C4   96   0.236   0.065  -0.286
    5PETL   H41   97   0.304   0.136  -0.331
    5PETL    C5   98   0.006   0.008  -0.222
    5PETL   H51   99  -0.088   0.047  -0.187
    5PETL    C6  100   0.050  -0.121  -0.192
    5PETL   H61  101  -0.020  -0.189  -0.143
    5PETL    C7  102   0.182  -0.166  -0.215
    5PETL    C8  103   0.230  -0.299  -0.177
    5PETL    O3  104   0.127  -0.386  -0.145
    5PETL    O4  105   0.348  -0.336  -0.171
    5PETL    C9  106   0.194  -0.511  -0.116
    5PETL   H91  107   0.260  -0.541  -0.200
    5PETL   H92  108   0.253  -0.499  -0.023
    5PETL   C10  109   0.092  -0.613  -0.082
    5PETL   HX1  110   0.138  -0.681  -0.007
    5PETL   HX2  111   0.034  -0.650  -0.169
    6PETL    O1  112   0.056  -0.482  -0.026
    6PETL    C1  113  -0.069  -0.494   0.024
    6PETL    O2  114  -0.146  -0.586   0.006
    6PETL    C2  115  -0.103  -0.368   0.106
    6PETL    C3  116  -0.052  -0.135   0.189
    6PETL   H31  117   0.015  -0.052   0.204
    6PETL    C4  118  -0.013  -0.257   0.125
    6PETL   H41  119   0.080  -0.270   0.072
    6PETL    C5  120  -0.221  -0.359   0.175
    6PETL   H51  121  -0.277  -0.452   0.178
    6PETL    C6  122  -0.261  -0.244   0.246
    6PETL   H61  123  -0.363  -0.243   0.284
    6PETL    C7  124  -0.179  -0.124   0.253
    6PETL    C8  125  -0.219  -0.012   0.336
    6PETL    O3  126  -0.132   0.089   0.329
    6PETL    O4  127  -0.324  -0.009   0.397
    6PETL    C9  128  -0.174   0.204   0.407
    6PETL   H91  129  -0.263   0.254   0.364
    6PETL   H92  130  -0.193   0.164   0.509
    6PETL   C10  131  -0.055   0.296   0.423
    6PETL   HX1  132  -0.049   0.351   0.520
    6PETL   HX2  133  -0.045   0.350   0.326
    7PETL    O1  134  -0.000   0.163   0.419
    7PETL    C1  135   0.131   0.173   0.413
    7PETL    O2  136   0.192   0.279   0.417
    7PETL    C2  137   0.196   0.034   0.427
    7PETL    C3  138   0.190  -0.201   0.501
    7PETL   H31  139   0.132  -0.289   0.529
    7PETL    C4  140   0.126  -0.077   0.488
    7PETL   H41  141   0.023  -0.070   0.520
    7PETL    C5  142   0.333   0.020   0.412
    7PETL   H51  143   0.387   0.110   0.388
    7PETL    C6  144   0.400  -0.104   0.433
    7PETL   H61  145   0.508  -0.110   0.431
    7PETL    C7  146   0.324  -0.220   0.465
    7PETL    C8  147   0.392  -0.356   0.495
    7PETL    O3  148   0.519  -0.357   0.456
    7PETL    O4  149   0.327  -0.451   0.542
    7PETL    C9  150   0.562  -0.491   0.419
    7PETL   H91  151   0.556  -0.564   0.503
    7PETL   H92  152   0.501  -0.530   0.335
    7PETL   C10  153   0.702  -0.476   0.366
    7PETL   HX1  154   0.726  -0.433   0.265
    7PETL   HX2  155   0.770  -0.555   0.403
    8PETL    O1  156   0.676  -0.380   0.467
    8PETL    C1  157   0.785  -0.313   0.506
    8PETL    O2  158   0.898  -0.344   0.469
    8PETL    C2  159   0.753  -0.193   0.594
    8PETL    C3  160   0.791   0.046   0.632
    8PETL   H31  161   0.835   0.137   0.595
    8PETL    C4  162   0.828  -0.071   0.570
    8PETL   H41  163   0.893  -0.077   0.485
    8PETL    C5  164   0.650  -0.190   0.689
    8PETL   H51  165   0.589  -0.277   0.703
    8PETL    C6  166   0.616  -0.069   0.757
    8PETL   H61  167   0.537  -0.072   0.831
    8PETL    C7  168   0.687   0.051   0.727
    8PETL    C8  169   0.640   0.183   0.777
    8PETL    O3  170   0.697   0.298   0.718
    8PETL    O4  171   0.546   0.197   0.855
    8PETL    C9  172   0.642   0.423   0.777
    8PETL   H91  173   0.535   0.433   0.749
    8PETL   H92  174   0.631   0.422   0.888
    8PETL   C10  175   0.729   0.530   0.728
    8PETL   HX1  176   0.834   0.533   0.765
    8PETL   HX2  177   0.683   0.623   0.690
    9PETL    O1  178   0.703   0.416   0.626
    9PETL    C1  179   0.794   0.436   0.531
    9PETL    O2  180   0.877   0.522   0.522
    9PETL    C2  181   0.784   0.338   0.421
    9PETL    C3  182   0.687   0.130   0.328
    9PETL   H31  183   0.603   0.061   0.326
    9PETL    C4  184   0.685   0.238   0.417
    9PETL   H41  185   0.600   0.242   0.484
    9PETL    C5  186   0.895   0.315   0.331
    9PETL   H51  187   0.984   0.377   0.338
    9PETL    C6  188   0.899   0.206   0.247
    9PETL   H61  189   0.986   0.185   0.186
    9PETL    C7  190   0.796   0.113   0.235
    9PETL    C8  191   0.794   0.001   0.127
    9PETL    O3  192   0.684  -0.075   0.124
    9PETL    O4  193   0.891  -0.019   0.052
    9PETL    C9  194   0.704  -0.199   0.062
    9PETL   H91  195   0.734  -0.191  -0.044
    9PETL   H92  196   0.780  -0.261   0.113
    9PETL   C10  197   0.573  -0.261   0.061
    9PETL   HX1  198   0.535  -0.284   0.163
    9PETL   HX2  199   0.549  -0.342  -0.011
   10PETL    O1  200   0.538  -0.127   0.008
   10PETL    C1  201   0.411  -0.105   0.042
   10PETL    O2  202   0.331  -0.193   0.068
   10PETL    C2  203   0.376   0.036   0.049
   10PETL    C3  204   0.187   0.193   0.067
   10PETL   H31  205   0.080   0.206   0.065
   10PETL    C4  206   0.241   0.060   0.065
   10PETL   H41  207   0.178  -0.025   0.079
   10PETL    C5  208   0.464   0.147   0.017
   10PETL   H51  209   0.566   0.121  -0.004
   10PETL    C6  210   0.418   0.281   0.014
   10PETL   H61  211   0.484   0.365   0.000
   10PETL    C7  212   0.281   0.304   0.040
   10PETL    C8  213   0.230   0.448   0.034
   10PETL    O3  214   0.314   0.548   0.037
   10PETL    O4  215   0.106   0.463   0.013
   10PETL    C9  216   0.266   0.672  -0.016
   10PETL   H91  217   0.242   0.665  -0.123
   10PETL   H92  218   0.194   0.723   0.052
   10PETL   C10  219   0.395   0.761  -0.024
   10PETL   HX1  220   0.482   0.733  -0.089
   10PETL   HX2  221   0.439   0.743   0.076
   10PETL   HZ1  222   0.450   0.944  -0.060
   10PETL    OZ  223   0.367   0.901  -0.036
  19.78500   9.89250   9.89250
