frame t= 35030.000
  223
    1PETL   H11    1  -0.299   0.076  -0.649
    1PETL    O1    2  -0.275  -0.017  -0.662
    1PETL    C1    3  -0.385  -0.089  -0.610
    1PETL    O2    4  -0.484  -0.024  -0.575
    1PETL    C2    5  -0.377  -0.238  -0.604
    1PETL    C3    6  -0.486  -0.447  -0.536
    1PETL   H31    7  -0.572  -0.494  -0.489
    1PETL    C4    8  -0.484  -0.308  -0.541
    1PETL   H41    9  -0.566  -0.260  -0.489
    1PETL    C5   10  -0.276  -0.321  -0.653
    1PETL   H51   11  -0.191  -0.278  -0.706
    1PETL    C6   12  -0.277  -0.460  -0.656
    1PETL   H61   13  -0.203  -0.526  -0.700
    1PETL    C7   14  -0.387  -0.526  -0.594
    1PETL    C8   15  -0.402  -0.672  -0.589
    1PETL    O3   16  -0.529  -0.718  -0.568
    1PETL    O4   17  -0.316  -0.749  -0.623
    1PETL    C9   18  -0.540  -0.862  -0.599
    1PETL   H91   19  -0.533  -0.877  -0.708
    1PETL   H92   20  -0.465  -0.923  -0.543
    1PETL   C10   21  -0.679  -0.899  -0.545
    1PETL   HX1   22  -0.704  -0.886  -0.438
    1PETL   HX2   23  -0.739  -0.968  -0.608
    2PETL    O1   24  -0.676  -0.770  -0.610
    2PETL    C1   25  -0.789  -0.701  -0.589
    2PETL    O2   26  -0.889  -0.739  -0.526
    2PETL    C2   27  -0.787  -0.565  -0.651
    2PETL    C3   28  -0.873  -0.332  -0.665
    2PETL   H31   29  -0.947  -0.258  -0.643
    2PETL    C4   30  -0.887  -0.465  -0.618
    2PETL   H41   31  -0.963  -0.482  -0.543
    2PETL    C5   32  -0.694  -0.523  -0.753
    2PETL   H51   33  -0.624  -0.597  -0.790
    2PETL    C6   34  -0.686  -0.396  -0.810
    2PETL   H61   35  -0.609  -0.386  -0.884
    2PETL    C7   36  -0.770  -0.299  -0.754
    2PETL    C8   37  -0.745  -0.154  -0.800
    2PETL    O3   38  -0.836  -0.066  -0.739
    2PETL    O4   39  -0.655  -0.118  -0.874
    2PETL    C9   40  -0.817   0.071  -0.776
    2PETL   H91   41  -0.732   0.115  -0.722
    2PETL   H92   42  -0.805   0.080  -0.886
    2PETL   C10   43  -0.940   0.146  -0.723
    2PETL   HX1   44  -1.036   0.125  -0.775
    2PETL   HX2   45  -0.914   0.247  -0.685
    3PETL    O1   46  -0.915   0.032  -0.636
    3PETL    C1   47  -0.984   0.056  -0.529
    3PETL    O2   48  -1.069   0.138  -0.514
    3PETL    C2   49  -0.961  -0.048  -0.414
    3PETL    C3   50  -0.831  -0.225  -0.305
    3PETL   H31   51  -0.751  -0.297  -0.315
    3PETL    C4   52  -0.855  -0.144  -0.411
    3PETL   H41   53  -0.786  -0.134  -0.493
    3PETL    C5   54  -1.046  -0.046  -0.301
    3PETL   H51   55  -1.123   0.029  -0.289
    3PETL    C6   56  -1.029  -0.135  -0.199
    3PETL   H61   57  -1.083  -0.142  -0.105
    3PETL    C7   58  -0.925  -0.236  -0.199
    3PETL    C8   59  -0.896  -0.325  -0.082
    3PETL    O3   60  -0.780  -0.383  -0.074
    3PETL    O4   61  -0.982  -0.342   0.003
    3PETL    C9   62  -0.757  -0.479   0.035
    3PETL   H91   63  -0.748  -0.427   0.132
    3PETL   H92   64  -0.831  -0.564   0.031
    3PETL   C10   65  -0.620  -0.541   0.008
    3PETL   HX1   66  -0.615  -0.624  -0.065
    3PETL   HX2   67  -0.556  -0.548   0.099
    4PETL    O1   68  -0.630  -0.410  -0.063
    4PETL    C1   69  -0.499  -0.370  -0.084
    4PETL    O2   70  -0.406  -0.445  -0.069
    4PETL    C2   71  -0.486  -0.229  -0.132
    4PETL    C3   72  -0.374  -0.062  -0.261
    4PETL   H31   73  -0.285  -0.038  -0.317
    4PETL    C4   74  -0.391  -0.198  -0.223
    4PETL   H41   75  -0.311  -0.263  -0.252
    4PETL    C5   76  -0.589  -0.133  -0.110
    4PETL   H51   77  -0.675  -0.155  -0.049
    4PETL    C6   78  -0.581  -0.002  -0.159
    4PETL   H61   79  -0.660   0.070  -0.146
    4PETL    C7   80  -0.469   0.038  -0.237
    4PETL    C8   81  -0.449   0.183  -0.285
    4PETL    O3   82  -0.526   0.266  -0.227
    4PETL    O4   83  -0.364   0.212  -0.376
    4PETL    C9   84  -0.507   0.407  -0.260
    4PETL   H91   85  -0.399   0.426  -0.272
    4PETL   H92   86  -0.555   0.435  -0.356
    4PETL   C10   87  -0.578   0.468  -0.148
    4PETL   HX1   88  -0.688   0.462  -0.153
    4PETL   HX2   89  -0.542   0.570  -0.119
    5PETL    O1   90  -0.532   0.354  -0.066
    5PETL    C1   91  -0.420   0.380   0.005
    5PETL    O2   92  -0.356   0.483  -0.004
    5PETL    C2   93  -0.377   0.258   0.084
    5PETL    C3   94  -0.428   0.033   0.157
    5PETL   H31   95  -0.500  -0.048   0.157
    5PETL    C4   96  -0.466   0.153   0.099
    5PETL   H41   97  -0.568   0.167   0.065
    5PETL    C5   98  -0.248   0.242   0.135
    5PETL   H51   99  -0.180   0.326   0.130
    5PETL    C6  100  -0.211   0.123   0.192
    5PETL   H61  101  -0.107   0.124   0.219
    5PETL    C7  102  -0.291   0.013   0.200
    5PETL    C8  103  -0.245  -0.114   0.268
    5PETL    O3  104  -0.130  -0.097   0.348
    5PETL    O4  105  -0.312  -0.215   0.268
    5PETL    C9  106  -0.115  -0.201   0.442
    5PETL   H91  107  -0.202  -0.190   0.512
    5PETL   H92  108  -0.126  -0.304   0.403
    5PETL   C10  109   0.015  -0.184   0.513
    5PETL   HX1  110   0.095  -0.236   0.457
    5PETL   HX2  111   0.017  -0.208   0.622
    6PETL    O1  112  -0.004  -0.044   0.478
    6PETL    C1  113   0.103   0.024   0.503
    6PETL    O2  114   0.212  -0.023   0.534
    6PETL    C2  115   0.095   0.172   0.478
    6PETL    C3  116  -0.034   0.368   0.406
    6PETL   H31  117  -0.126   0.426   0.400
    6PETL    C4  118  -0.030   0.239   0.457
    6PETL   H41  119  -0.115   0.179   0.484
    6PETL    C5  120   0.213   0.249   0.450
    6PETL   H51  121   0.311   0.205   0.463
    6PETL    C6  122   0.202   0.369   0.379
    6PETL   H61  123   0.291   0.424   0.354
    6PETL    C7  124   0.083   0.437   0.362
    6PETL    C8  125   0.079   0.579   0.312
    6PETL    O3  126   0.181   0.618   0.244
    6PETL    O4  127  -0.020   0.650   0.322
    6PETL    C9  128   0.192   0.752   0.198
    6PETL   H91  129   0.117   0.780   0.120
    6PETL   H92  130   0.158   0.829   0.271
    6PETL   C10  131   0.328   0.773   0.179
    6PETL   HX1  132   0.398   0.730   0.255
    6PETL   HX2  133   0.354   0.869   0.130
    7PETL    O1  134   0.254   0.667   0.105
    7PETL    C1  135   0.336   0.615   0.015
    7PETL    O2  136   0.446   0.673  -0.015
    7PETL    C2  137   0.298   0.486  -0.048
    7PETL    C3  138   0.359   0.278  -0.160
    7PETL   H31  139   0.426   0.216  -0.217
    7PETL    C4  140   0.388   0.413  -0.128
    7PETL   H41  141   0.486   0.447  -0.157
    7PETL    C5  142   0.191   0.410   0.004
    7PETL   H51  143   0.111   0.457   0.060
    7PETL    C6  144   0.161   0.280  -0.037
    7PETL   H61  145   0.085   0.228   0.019
    7PETL    C7  146   0.242   0.212  -0.117
    7PETL    C8  147   0.213   0.068  -0.131
    7PETL    O3  148   0.324  -0.003  -0.151
    7PETL    O4  149   0.101   0.023  -0.112
    7PETL    C9  150   0.319  -0.148  -0.138
    7PETL   H91  151   0.274  -0.178  -0.041
    7PETL   H92  152   0.258  -0.201  -0.215
    7PETL   C10  153   0.462  -0.208  -0.156
    7PETL   HX1  154   0.506  -0.211  -0.259
    7PETL   HX2  155   0.506  -0.272  -0.077
    8PETL    O1  156   0.453  -0.070  -0.111
    8PETL    C1  157   0.575  -0.036  -0.083
    8PETL    O2  158   0.672  -0.086  -0.135
    8PETL    C2  159   0.587   0.073   0.016
    8PETL    C3  160   0.722   0.254   0.107
    8PETL   H31  161   0.798   0.327   0.081
    8PETL    C4  162   0.704   0.149   0.022
    8PETL   H41  163   0.776   0.135  -0.059
    8PETL    C5  164   0.487   0.105   0.112
    8PETL   H51  165   0.396   0.048   0.104
    8PETL    C6  166   0.503   0.216   0.202
    8PETL   H61  167   0.421   0.239   0.269
    8PETL    C7  168   0.613   0.295   0.196
    8PETL    C8  169   0.638   0.418   0.278
    8PETL    O3  170   0.544   0.443   0.373
    8PETL    O4  171   0.735   0.493   0.257
    8PETL    C9  172   0.568   0.563   0.449
    8PETL   H91  173   0.675   0.563   0.478
    8PETL   H92  174   0.535   0.652   0.391
    8PETL   C10  175   0.477   0.540   0.566
    8PETL   HX1  176   0.371   0.547   0.535
    8PETL   HX2  177   0.502   0.577   0.666
    9PETL    O1  178   0.536   0.416   0.532
    9PETL    C1  179   0.514   0.314   0.627
    9PETL    O2  180   0.458   0.337   0.731
    9PETL    C2  181   0.568   0.178   0.594
    9PETL    C3  182   0.555  -0.065   0.593
    9PETL   H31  183   0.502  -0.147   0.639
    9PETL    C4  184   0.508   0.064   0.639
    9PETL   H41  185   0.422   0.072   0.702
    9PETL    C5  186   0.673   0.165   0.503
    9PETL   H51  187   0.724   0.255   0.472
    9PETL    C6  188   0.717   0.042   0.456
    9PETL   H61  189   0.792   0.038   0.379
    9PETL    C7  190   0.659  -0.079   0.500
    9PETL    C8  191   0.694  -0.220   0.457
    9PETL    O3  192   0.759  -0.224   0.343
    9PETL    O4  193   0.668  -0.321   0.520
    9PETL    C9  194   0.810  -0.349   0.296
    9PETL   H91  195   0.887  -0.384   0.369
    9PETL   H92  196   0.733  -0.429   0.301
    9PETL   C10  197   0.857  -0.338   0.148
    9PETL   HX1  198   0.794  -0.277   0.080
    9PETL   HX2  199   0.934  -0.411   0.118
   10PETL    O1  200   0.886  -0.260   0.264
   10PETL    C1  201   0.990  -0.168   0.239
   10PETL    O2  202   1.028  -0.158   0.124
   10PETL    C2  203   1.046  -0.100   0.359
   10PETL    C3  204   1.187   0.076   0.461
   10PETL   H31  205   1.245   0.164   0.439
   10PETL    C4  206   1.133   0.014   0.347
   10PETL   H41  207   1.150   0.057   0.250
   10PETL    C5  208   1.034  -0.159   0.492
   10PETL   H51  209   0.982  -0.253   0.506
   10PETL    C6  210   1.095  -0.096   0.604
   10PETL   H61  211   1.073  -0.132   0.703
   10PETL    C7  212   1.174   0.015   0.589
   10PETL    C8  213   1.225   0.079   0.714
   10PETL    O3  214   1.282   0.200   0.695
   10PETL    O4  215   1.215   0.024   0.822
   10PETL    C9  216   1.307   0.266   0.814
   10PETL   H91  217   1.223   0.257   0.887
   10PETL   H92  218   1.401   0.235   0.866
   10PETL   C10  219   1.326   0.418   0.789
   10PETL   HX1  220   1.230   0.460   0.752
   10PETL   HX2  221   1.401   0.445   0.711
   10PETL   HZ1  222   1.364   0.573   0.909
   10PETL    OZ  223   1.352   0.479   0.918
  19.78990   9.89490   9.89490
