frame t= 27320.000
  223
    1PETL   H11    1  -0.024   0.316  -0.677
    1PETL    O1    2  -0.073   0.243  -0.639
    1PETL    C1    3  -0.057   0.212  -0.508
    1PETL    O2    4   0.003   0.294  -0.439
    1PETL    C2    5  -0.126   0.095  -0.450
    1PETL    C3    6  -0.177  -0.038  -0.255
    1PETL   H31    7  -0.159  -0.068  -0.153
    1PETL    C4    8  -0.105   0.068  -0.313
    1PETL   H41    9  -0.042   0.134  -0.256
    1PETL    C5   10  -0.211   0.016  -0.526
    1PETL   H51   11  -0.216   0.027  -0.634
    1PETL    C6   12  -0.282  -0.087  -0.470
    1PETL   H61   13  -0.343  -0.155  -0.528
    1PETL    C7   14  -0.263  -0.123  -0.332
    1PETL    C8   15  -0.320  -0.238  -0.260
    1PETL    O3   16  -0.383  -0.319  -0.336
    1PETL    O4   17  -0.300  -0.248  -0.139
    1PETL    C9   18  -0.434  -0.433  -0.264
    1PETL   H91   19  -0.360  -0.486  -0.200
    1PETL   H92   20  -0.522  -0.399  -0.205
    1PETL   C10   21  -0.483  -0.523  -0.374
    1PETL   HX1   22  -0.577  -0.581  -0.373
    1PETL   HX2   23  -0.407  -0.582  -0.430
    2PETL    O1   24  -0.485  -0.384  -0.421
    2PETL    C1   25  -0.553  -0.396  -0.544
    2PETL    O2   26  -0.573  -0.504  -0.599
    2PETL    C2   27  -0.590  -0.261  -0.596
    2PETL    C3   28  -0.646  -0.026  -0.559
    2PETL   H31   29  -0.675   0.048  -0.486
    2PETL    C4   30  -0.617  -0.151  -0.508
    2PETL   H41   31  -0.616  -0.165  -0.401
    2PETL    C5   32  -0.608  -0.247  -0.734
    2PETL   H51   33  -0.588  -0.329  -0.800
    2PETL    C6   34  -0.644  -0.125  -0.785
    2PETL   H61   35  -0.652  -0.113  -0.892
    2PETL    C7   36  -0.667  -0.014  -0.701
    2PETL    C8   37  -0.736   0.114  -0.758
    2PETL    O3   38  -0.787   0.192  -0.668
    2PETL    O4   39  -0.738   0.136  -0.882
    2PETL    C9   40  -0.835   0.314  -0.730
    2PETL   H91   41  -0.773   0.352  -0.814
    2PETL   H92   42  -0.938   0.289  -0.766
    2PETL   C10   43  -0.831   0.418  -0.623
    2PETL   HX1   44  -0.932   0.464  -0.609
    2PETL   HX2   45  -0.740   0.475  -0.597
    3PETL    O1   46  -0.833   0.285  -0.563
    3PETL    C1   47  -0.836   0.303  -0.436
    3PETL    O2   48  -0.787   0.403  -0.377
    3PETL    C2   49  -0.880   0.182  -0.349
    3PETL    C3   50  -0.934   0.084  -0.136
    3PETL   H31   51  -0.946   0.092  -0.029
    3PETL    C4   52  -0.882   0.189  -0.205
    3PETL   H41   53  -0.859   0.277  -0.147
    3PETL    C5   54  -0.924   0.062  -0.413
    3PETL   H51   55  -0.922   0.040  -0.519
    3PETL    C6   56  -0.962  -0.049  -0.334
    3PETL   H61   57  -0.998  -0.137  -0.386
    3PETL    C7   58  -0.968  -0.041  -0.198
    3PETL    C8   59  -1.017  -0.165  -0.123
    3PETL    O3   60  -0.994  -0.158   0.004
    3PETL    O4   61  -1.058  -0.263  -0.179
    3PETL    C9   62  -1.029  -0.283   0.071
    3PETL   H91   63  -1.137  -0.302   0.057
    3PETL   H92   64  -0.972  -0.364   0.021
    3PETL   C10   65  -0.992  -0.271   0.214
    3PETL   HX1   66  -0.955  -0.359   0.270
    3PETL   HX2   67  -1.051  -0.193   0.266
    4PETL    O1   68  -0.892  -0.228   0.124
    4PETL    C1   69  -0.821  -0.138   0.198
    4PETL    O2   70  -0.836  -0.123   0.317
    4PETL    C2   71  -0.719  -0.057   0.115
    4PETL    C3   72  -0.602  -0.001  -0.099
    4PETL   H31   73  -0.580  -0.017  -0.204
    4PETL    C4   74  -0.694  -0.080  -0.022
    4PETL   H41   75  -0.739  -0.170  -0.063
    4PETL    C5   76  -0.649   0.049   0.176
    4PETL   H51   77  -0.667   0.074   0.279
    4PETL    C6   78  -0.557   0.136   0.104
    4PETL   H61   79  -0.516   0.220   0.159
    4PETL    C7   80  -0.537   0.107  -0.035
    4PETL    C8   81  -0.426   0.182  -0.107
    4PETL    O3   82  -0.370   0.277  -0.031
    4PETL    O4   83  -0.399   0.163  -0.226
    4PETL    C9   84  -0.288   0.382  -0.100
    4PETL   H91   85  -0.208   0.324  -0.151
    4PETL   H92   86  -0.343   0.446  -0.172
    4PETL   C10   87  -0.238   0.473   0.009
    4PETL   HX1   88  -0.306   0.533   0.073
    4PETL   HX2   89  -0.133   0.506  -0.002
    5PETL    O1   90  -0.254   0.329   0.050
    5PETL    C1   91  -0.216   0.303   0.181
    5PETL    O2   92  -0.210   0.390   0.263
    5PETL    C2   93  -0.183   0.157   0.214
    5PETL    C3   94  -0.170  -0.083   0.174
    5PETL   H31   95  -0.191  -0.163   0.105
    5PETL    C4   96  -0.209   0.046   0.132
    5PETL   H41   97  -0.257   0.060   0.036
    5PETL    C5   98  -0.126   0.133   0.337
    5PETL   H51   99  -0.099   0.219   0.397
    5PETL    C6  100  -0.095   0.002   0.386
    5PETL   H61  101  -0.044  -0.010   0.480
    5PETL    C7  102  -0.115  -0.105   0.302
    5PETL    C8  103  -0.094  -0.247   0.348
    5PETL    O3  104  -0.130  -0.340   0.260
    5PETL    O4  105  -0.032  -0.275   0.450
    5PETL    C9  106  -0.093  -0.469   0.311
    5PETL   H91  107   0.017  -0.467   0.326
    5PETL   H92  108  -0.144  -0.498   0.404
    5PETL   C10  109  -0.139  -0.571   0.208
    5PETL   HX1  110  -0.248  -0.592   0.209
    5PETL   HX2  111  -0.067  -0.649   0.175
    6PETL    O1  112  -0.106  -0.442   0.141
    6PETL    C1  113  -0.087  -0.467   0.010
    6PETL    O2  114  -0.134  -0.566  -0.041
    6PETL    C2  115  -0.001  -0.373  -0.070
    6PETL    C3  116   0.123  -0.160  -0.089
    6PETL   H31  117   0.158  -0.070  -0.042
    6PETL    C4  118   0.062  -0.259  -0.011
    6PETL   H41  119   0.062  -0.259   0.097
    6PETL    C5  120  -0.008  -0.378  -0.211
    6PETL   H51  121  -0.051  -0.464  -0.260
    6PETL    C6  122   0.060  -0.285  -0.289
    6PETL   H61  123   0.051  -0.294  -0.396
    6PETL    C7  124   0.139  -0.181  -0.230
    6PETL    C8  125   0.207  -0.090  -0.322
    6PETL    O3  126   0.301  -0.022  -0.264
    6PETL    O4  127   0.178  -0.085  -0.444
    6PETL    C9  128   0.361   0.074  -0.361
    6PETL   H91  129   0.433   0.029  -0.433
    6PETL   H92  130   0.279   0.111  -0.426
    6PETL   C10  131   0.430   0.189  -0.286
    6PETL   HX1  132   0.357   0.267  -0.257
    6PETL   HX2  133   0.530   0.215  -0.328
    7PETL    O1  134   0.419   0.059  -0.222
    7PETL    C1  135   0.467   0.064  -0.096
    7PETL    O2  136   0.490   0.173  -0.041
    7PETL    C2  137   0.491  -0.073  -0.029
    7PETL    C3  138   0.565  -0.180   0.177
    7PETL   H31  139   0.587  -0.172   0.283
    7PETL    C4  140   0.536  -0.067   0.104
    7PETL   H41  141   0.544   0.029   0.153
    7PETL    C5  142   0.478  -0.199  -0.088
    7PETL   H51  143   0.444  -0.209  -0.190
    7PETL    C6  144   0.501  -0.320  -0.018
    7PETL   H61  145   0.471  -0.417  -0.054
    7PETL    C7  146   0.553  -0.310   0.116
    7PETL    C8  147   0.589  -0.438   0.181
    7PETL    O3  148   0.639  -0.418   0.299
    7PETL    O4  149   0.567  -0.553   0.132
    7PETL    C9  150   0.675  -0.548   0.361
    7PETL   H91  151   0.579  -0.604   0.370
    7PETL   H92  152   0.738  -0.599   0.286
    7PETL   C10  153   0.732  -0.529   0.496
    7PETL   HX1  154   0.817  -0.593   0.525
    7PETL   HX2  155   0.653  -0.503   0.570
    8PETL    O1  156   0.766  -0.425   0.410
    8PETL    C1  157   0.846  -0.339   0.468
    8PETL    O2  158   0.878  -0.347   0.587
    8PETL    C2  159   0.901  -0.227   0.378
    8PETL    C3  160   0.997  -0.001   0.347
    8PETL   H31  161   1.035   0.093   0.385
    8PETL    C4  162   0.959  -0.115   0.429
    8PETL   H41  163   0.978  -0.102   0.536
    8PETL    C5  164   0.884  -0.232   0.238
    8PETL   H51  165   0.849  -0.324   0.193
    8PETL    C6  166   0.904  -0.123   0.152
    8PETL   H61  167   0.891  -0.127   0.046
    8PETL    C7  168   0.960  -0.001   0.213
    8PETL    C8  169   0.982   0.111   0.117
    8PETL    O3  170   1.011   0.224   0.181
    8PETL    O4  171   0.973   0.106  -0.004
    8PETL    C9  172   1.037   0.336   0.091
    8PETL   H91  173   1.123   0.316   0.023
    8PETL   H92  174   0.953   0.354   0.021
    8PETL   C10  175   1.078   0.458   0.163
    8PETL   HX1  176   1.036   0.555   0.128
    8PETL   HX2  177   1.177   0.451   0.213
    9PETL    O1  178   0.988   0.377   0.230
    9PETL    C1  179   0.967   0.398   0.363
    9PETL    O2  180   1.043   0.470   0.430
    9PETL    C2  181   0.844   0.328   0.418
    9PETL    C3  182   0.640   0.187   0.397
    9PETL   H31  183   0.573   0.132   0.333
    9PETL    C4  184   0.751   0.256   0.340
    9PETL   H41  185   0.756   0.260   0.232
    9PETL    C5  186   0.829   0.320   0.562
    9PETL   H51  187   0.898   0.375   0.623
    9PETL    C6  188   0.723   0.245   0.622
    9PETL   H61  189   0.728   0.255   0.729
    9PETL    C7  190   0.627   0.188   0.539
    9PETL    C8  191   0.520   0.102   0.605
    9PETL    O3  192   0.462   0.012   0.516
    9PETL    O4  193   0.484   0.106   0.723
    9PETL    C9  194   0.377  -0.082   0.587
    9PETL   H91  195   0.422  -0.133   0.675
    9PETL   H92  196   0.278  -0.033   0.603
    9PETL   C10  197   0.354  -0.197   0.479
    9PETL   HX1  198   0.254  -0.244   0.482
    9PETL   HX2  199   0.441  -0.262   0.455
   10PETL    O1  200   0.345  -0.058   0.454
   10PETL    C1  201   0.277  -0.038   0.339
   10PETL    O2  202   0.238  -0.130   0.275
   10PETL    C2  203   0.257   0.106   0.304
   10PETL    C3  204   0.264   0.346   0.363
   10PETL   H31  205   0.292   0.417   0.439
   10PETL    C4  206   0.285   0.214   0.394
   10PETL   H41  207   0.318   0.193   0.495
   10PETL    C5  208   0.213   0.145   0.180
   10PETL   H51  209   0.190   0.061   0.115
   10PETL    C6  210   0.194   0.277   0.141
   10PETL   H61  211   0.147   0.303   0.047
   10PETL    C7  212   0.213   0.382   0.234
   10PETL    C8  213   0.174   0.523   0.194
   10PETL    O3  214   0.223   0.619   0.267
   10PETL    O4  215   0.100   0.543   0.095
   10PETL    C9  216   0.172   0.752   0.247
   10PETL   H91  217   0.071   0.761   0.203
   10PETL   H92  218   0.179   0.812   0.339
   10PETL   C10  219   0.281   0.827   0.168
   10PETL   HX1  220   0.244   0.928   0.140
   10PETL   HX2  221   0.298   0.777   0.071
   10PETL   HZ1  222   0.392   0.919   0.295
   10PETL    OZ  223   0.400   0.840   0.243
  19.79070   9.89540   9.89540
